 Entering Gaussian System, Link 0=g09
 Input=final_relax_1.com
 Output=final_relax_1.log
 Initial command:
 /appl/g09.shchoi/G09Files/g09/l1.exe "/home/rxn_grp/scratch/Gau-2493012.inp" -scrdir="/home/rxn_grp/scratch/"
 Entering Link 1 = /appl/g09.shchoi/G09Files/g09/l1.exe PID=   2493014.
  
 Copyright (c) 1988,1990,1992,1993,1995,1998,2003,2009,2013,
            Gaussian, Inc.  All Rights Reserved.
  
 This is part of the Gaussian(R) 09 program.  It is based on
 the Gaussian(R) 03 system (copyright 2003, Gaussian, Inc.),
 the Gaussian(R) 98 system (copyright 1998, Gaussian, Inc.),
 the Gaussian(R) 94 system (copyright 1995, Gaussian, Inc.),
 the Gaussian 92(TM) system (copyright 1992, Gaussian, Inc.),
 the Gaussian 90(TM) system (copyright 1990, Gaussian, Inc.),
 the Gaussian 88(TM) system (copyright 1988, Gaussian, Inc.),
 the Gaussian 86(TM) system (copyright 1986, Carnegie Mellon
 University), and the Gaussian 82(TM) system (copyright 1983,
 Carnegie Mellon University). Gaussian is a federally registered
 trademark of Gaussian, Inc.
  
 This software contains proprietary and confidential information,
 including trade secrets, belonging to Gaussian, Inc.
  
 This software is provided under written license and may be
 used, copied, transmitted, or stored only in accord with that
 written license.
  
 The following legend is applicable only to US Government
 contracts under FAR:
  
                    RESTRICTED RIGHTS LEGEND
  
 Use, reproduction and disclosure by the US Government is
 subject to restrictions as set forth in subparagraphs (a)
 and (c) of the Commercial Computer Software - Restricted
 Rights clause in FAR 52.227-19.
  
 Gaussian, Inc.
 340 Quinnipiac St., Bldg. 40, Wallingford CT 06492
  
  
 ---------------------------------------------------------------
 Warning -- This program may not be used in any manner that
 competes with the business of Gaussian, Inc. or will provide
 assistance to any competitor of Gaussian, Inc.  The licensee
 of this program is prohibited from giving any competitor of
 Gaussian, Inc. access to this program.  By using this program,
 the user acknowledges that Gaussian, Inc. is engaged in the
 business of creating and licensing software in the field of
 computational chemistry and represents and warrants to the
 licensee that it is not a competitor of Gaussian, Inc. and that
 it will not use this program in any manner prohibited above.
 ---------------------------------------------------------------
  

 Cite this work as:
 Gaussian 09, Revision D.01,
 M. J. Frisch, G. W. Trucks, H. B. Schlegel, G. E. Scuseria, 
 M. A. Robb, J. R. Cheeseman, G. Scalmani, V. Barone, B. Mennucci, 
 G. A. Petersson, H. Nakatsuji, M. Caricato, X. Li, H. P. Hratchian, 
 A. F. Izmaylov, J. Bloino, G. Zheng, J. L. Sonnenberg, M. Hada, 
 M. Ehara, K. Toyota, R. Fukuda, J. Hasegawa, M. Ishida, T. Nakajima, 
 Y. Honda, O. Kitao, H. Nakai, T. Vreven, J. A. Montgomery, Jr., 
 J. E. Peralta, F. Ogliaro, M. Bearpark, J. J. Heyd, E. Brothers, 
 K. N. Kudin, V. N. Staroverov, T. Keith, R. Kobayashi, J. Normand, 
 K. Raghavachari, A. Rendell, J. C. Burant, S. S. Iyengar, J. Tomasi, 
 M. Cossi, N. Rega, J. M. Millam, M. Klene, J. E. Knox, J. B. Cross, 
 V. Bakken, C. Adamo, J. Jaramillo, R. Gomperts, R. E. Stratmann, 
 O. Yazyev, A. J. Austin, R. Cammi, C. Pomelli, J. W. Ochterski, 
 R. L. Martin, K. Morokuma, V. G. Zakrzewski, G. A. Voth, 
 P. Salvador, J. J. Dannenberg, S. Dapprich, A. D. Daniels, 
 O. Farkas, J. B. Foresman, J. V. Ortiz, J. Cioslowski, 
 and D. J. Fox, Gaussian, Inc., Wallingford CT, 2013.
 
 ******************************************
 Gaussian 09:  ES64L-G09RevD.01 24-Apr-2013
                15-Sep-2025 
 ******************************************
 -------------------------------------------------------------------
 #p external='/home/rxn_grp/programs/xtb-gaussian' /sdd opt(nomicro)
 -------------------------------------------------------------------
 1/14=-1,18=20,19=15,26=1,38=1/1,3;
 2/9=110,12=2,17=6,18=5,40=1/2;
 3/5=17,6=7,11=9,16=1,25=1,30=1,41=9900000,43=2,71=1/1;
 4/20=17,22=1,24=3,113=1,114=1/2;
 6/7=2,8=2,9=2,10=2/1;
 7/44=-1/16;
 1/14=-1,18=20,19=15,26=1/3(2);
 2/9=110/2;
 99//99;
 2/9=110/2;
 3/5=17,6=7,11=9,16=1,25=1,30=1,41=9900000,43=2,71=1/1;
 4/16=2,20=17,22=1,24=3,113=1,114=1/2;
 7/44=-1/16;
 1/14=-1,18=20,19=15,26=1/3(-4);
 2/9=110/2;
 6/7=2,8=2,9=2,10=2/1;
 99//99;
 Leave Link    1 at Mon Sep 15 12:53:49 2025, MaxMem=           0 cpu:         0.0
 (Enter /appl/g09.shchoi/G09Files/g09/l101.exe)
 -
 R
 -
 Symbolic Z-matrix:
 Charge =  0 Multiplicity = 1
 Zr                    0.        0.        0. 
 Cl                    0.        0.       -1.939 
 Cl                    1.939     0.        0. 
 N                     0.16592   0.01929   1.71388 
 C                    -0.74467   0.42836   2.72693 
 C                    -2.03123   0.95679   2.1218 
 C                    -1.58287   1.42804   0.79793 
 C                    -1.82207   1.26828  -0.50945 
 C                    -0.79073   1.99716  -1.23419 
 C                     0.09552   2.54486  -0.39123 
 C                    -0.4068    2.28153   0.89726 
 C                    -0.54454   0.34787   4.0994 
 C                     0.63037  -0.24409   4.54581 
 C                     1.48486  -0.83925   3.62095 
 C                     1.15852  -0.75091   2.26708 
 C                     1.44623  -1.88036   1.33654 
 C                     0.16768  -2.09734   0.59134 
 C                    -1.20725  -1.9265    1.07429 
 C                    -1.96268  -1.69761  -0.00434 
 C                    -1.13346  -1.88618  -1.17681 
 C                     0.13601  -2.14002  -0.83014 
 H                    -2.79339   0.17628   2.05958 
 H                    -2.43078   1.78318   2.72041 
 H                    -2.60513   0.70366  -0.9796 
 H                    -0.7418    2.03966  -2.31162 
 H                     0.96443   3.13194  -0.63726 
 H                    -0.05802   2.79427   1.78354 
 H                    -1.28317   0.72322   4.79819 
 H                     0.82588  -0.33528   5.61048 
 H                     2.29595  -1.47489   3.95963 
 H                     1.72109  -2.79192   1.87788 
 H                     2.27186  -1.60584   0.67179 
 H                    -1.53376  -2.01172   2.09784 
 H                    -3.03417  -1.56312  -0.02269 
 H                    -1.51383  -1.84248  -2.18675 
 H                     0.96596  -2.31613  -1.49044 
 
 NAtoms=     36 NQM=       36 NQMF=       0 NMMI=      0 NMMIF=      0
                NMic=       0 NMicF=      0.
                    Isotopes and Nuclear Properties:
 (Nuclear quadrupole moments (NQMom) in fm**2, nuclear magnetic moments (NMagM)
  in nuclear magnetons)

  Atom         1           2           3           4           5           6           7           8           9          10
 IAtWgt=          90          35          35          14          12          12          12          12          12          12
 AtmWgt=  89.9043000  34.9688527  34.9688527  14.0030740  12.0000000  12.0000000  12.0000000  12.0000000  12.0000000  12.0000000
 NucSpn=           0           3           3           2           0           0           0           0           0           0
 AtZEff=   0.0000000   0.0000000   0.0000000   0.0000000   0.0000000   0.0000000   0.0000000   0.0000000   0.0000000   0.0000000
 NQMom=    0.0000000  -8.1650000  -8.1650000   2.0440000   0.0000000   0.0000000   0.0000000   0.0000000   0.0000000   0.0000000
 NMagM=    0.0000000   0.8218740   0.8218740   0.4037610   0.0000000   0.0000000   0.0000000   0.0000000   0.0000000   0.0000000
 AtZNuc=  40.0000000  17.0000000  17.0000000   7.0000000   6.0000000   6.0000000   6.0000000   6.0000000   6.0000000   6.0000000

  Atom        11          12          13          14          15          16          17          18          19          20
 IAtWgt=          12          12          12          12          12          12          12          12          12          12
 AtmWgt=  12.0000000  12.0000000  12.0000000  12.0000000  12.0000000  12.0000000  12.0000000  12.0000000  12.0000000  12.0000000
 NucSpn=           0           0           0           0           0           0           0           0           0           0
 AtZEff=   0.0000000   0.0000000   0.0000000   0.0000000   0.0000000   0.0000000   0.0000000   0.0000000   0.0000000   0.0000000
 NQMom=    0.0000000   0.0000000   0.0000000   0.0000000   0.0000000   0.0000000   0.0000000   0.0000000   0.0000000   0.0000000
 NMagM=    0.0000000   0.0000000   0.0000000   0.0000000   0.0000000   0.0000000   0.0000000   0.0000000   0.0000000   0.0000000
 AtZNuc=   6.0000000   6.0000000   6.0000000   6.0000000   6.0000000   6.0000000   6.0000000   6.0000000   6.0000000   6.0000000

  Atom        21          22          23          24          25          26          27          28          29          30
 IAtWgt=          12           1           1           1           1           1           1           1           1           1
 AtmWgt=  12.0000000   1.0078250   1.0078250   1.0078250   1.0078250   1.0078250   1.0078250   1.0078250   1.0078250   1.0078250
 NucSpn=           0           1           1           1           1           1           1           1           1           1
 AtZEff=   0.0000000   0.0000000   0.0000000   0.0000000   0.0000000   0.0000000   0.0000000   0.0000000   0.0000000   0.0000000
 NQMom=    0.0000000   0.0000000   0.0000000   0.0000000   0.0000000   0.0000000   0.0000000   0.0000000   0.0000000   0.0000000
 NMagM=    0.0000000   2.7928460   2.7928460   2.7928460   2.7928460   2.7928460   2.7928460   2.7928460   2.7928460   2.7928460
 AtZNuc=   6.0000000   1.0000000   1.0000000   1.0000000   1.0000000   1.0000000   1.0000000   1.0000000   1.0000000   1.0000000

  Atom        31          32          33          34          35          36
 IAtWgt=           1           1           1           1           1           1
 AtmWgt=   1.0078250   1.0078250   1.0078250   1.0078250   1.0078250   1.0078250
 NucSpn=           1           1           1           1           1           1
 AtZEff=   0.0000000   0.0000000   0.0000000   0.0000000   0.0000000   0.0000000
 NQMom=    0.0000000   0.0000000   0.0000000   0.0000000   0.0000000   0.0000000
 NMagM=    2.7928460   2.7928460   2.7928460   2.7928460   2.7928460   2.7928460
 AtZNuc=   1.0000000   1.0000000   1.0000000   1.0000000   1.0000000   1.0000000
 Leave Link  101 at Mon Sep 15 12:53:49 2025, MaxMem=    33554432 cpu:         0.0
 (Enter /appl/g09.shchoi/G09Files/g09/l103.exe)

 GradGradGradGradGradGradGradGradGradGradGradGradGradGradGradGradGradGrad
 Berny optimization.
 Initialization pass.
                           ----------------------------
                           !    Initial Parameters    !
                           ! (Angstroms and Degrees)  !
 --------------------------                            --------------------------
 ! Name  Definition              Value          Derivative Info.                !
 --------------------------------------------------------------------------------
 ! R1    R(1,2)                  1.939          estimate D2E/DX2                !
 ! R2    R(1,3)                  1.939          estimate D2E/DX2                !
 ! R3    R(1,4)                  1.722          estimate D2E/DX2                !
 ! R4    R(1,7)                  2.2763         estimate D2E/DX2                !
 ! R5    R(1,8)                  2.2777         estimate D2E/DX2                !
 ! R6    R(1,9)                  2.4773         estimate D2E/DX2                !
 ! R7    R(1,10)                 2.5765         estimate D2E/DX2                !
 ! R8    R(1,11)                 2.4851         estimate D2E/DX2                !
 ! R9    R(1,17)                 2.1856         estimate D2E/DX2                !
 ! R10   R(1,18)                 2.5145         estimate D2E/DX2                !
 ! R11   R(1,19)                 2.595          estimate D2E/DX2                !
 ! R12   R(1,20)                 2.4955         estimate D2E/DX2                !
 ! R13   R(1,21)                 2.2994         estimate D2E/DX2                !
 ! R14   R(4,5)                  1.4222         estimate D2E/DX2                !
 ! R15   R(4,15)                 1.3728         estimate D2E/DX2                !
 ! R16   R(5,6)                  1.5168         estimate D2E/DX2                !
 ! R17   R(5,12)                 1.3893         estimate D2E/DX2                !
 ! R18   R(6,7)                  1.475          estimate D2E/DX2                !
 ! R19   R(6,22)                 1.0927         estimate D2E/DX2                !
 ! R20   R(6,23)                 1.0959         estimate D2E/DX2                !
 ! R21   R(7,8)                  1.3386         estimate D2E/DX2                !
 ! R22   R(7,11)                 1.4565         estimate D2E/DX2                !
 ! R23   R(8,9)                  1.4561         estimate D2E/DX2                !
 ! R24   R(8,24)                 1.0738         estimate D2E/DX2                !
 ! R25   R(9,10)                 1.3401         estimate D2E/DX2                !
 ! R26   R(9,25)                 1.0794         estimate D2E/DX2                !
 ! R27   R(10,11)                1.4078         estimate D2E/DX2                !
 ! R28   R(10,26)                1.0771         estimate D2E/DX2                !
 ! R29   R(11,27)                1.0817         estimate D2E/DX2                !
 ! R30   R(12,13)                1.3893         estimate D2E/DX2                !
 ! R31   R(12,28)                1.0839         estimate D2E/DX2                !
 ! R32   R(13,14)                1.3927         estimate D2E/DX2                !
 ! R33   R(13,29)                1.0863         estimate D2E/DX2                !
 ! R34   R(14,15)                1.3954         estimate D2E/DX2                !
 ! R35   R(14,30)                1.0847         estimate D2E/DX2                !
 ! R36   R(15,16)                1.4914         estimate D2E/DX2                !
 ! R37   R(16,17)                1.4957         estimate D2E/DX2                !
 ! R38   R(16,31)                1.0952         estimate D2E/DX2                !
 ! R39   R(16,32)                1.095          estimate D2E/DX2                !
 ! R40   R(17,18)                1.4673         estimate D2E/DX2                !
 ! R41   R(17,21)                1.4225         estimate D2E/DX2                !
 ! R42   R(18,19)                1.3366         estimate D2E/DX2                !
 ! R43   R(18,33)                1.0777         estimate D2E/DX2                !
 ! R44   R(19,20)                1.4484         estimate D2E/DX2                !
 ! R45   R(19,34)                1.0801         estimate D2E/DX2                !
 ! R46   R(20,21)                1.3402         estimate D2E/DX2                !
 ! R47   R(20,35)                1.0801         estimate D2E/DX2                !
 ! R48   R(21,36)                1.0751         estimate D2E/DX2                !
 ! A1    A(2,1,3)               90.0            estimate D2E/DX2                !
 ! A2    A(2,1,7)              110.5204         estimate D2E/DX2                !
 ! A3    A(2,1,8)               77.0756         estimate D2E/DX2                !
 ! A4    A(2,1,9)               60.1194         estimate D2E/DX2                !
 ! A5    A(2,1,10)              81.2662         estimate D2E/DX2                !
 ! A6    A(2,1,11)             111.1646         estimate D2E/DX2                !
 ! A7    A(2,1,17)             105.6981         estimate D2E/DX2                !
 ! A8    A(2,1,18)             115.2919         estimate D2E/DX2                !
 ! A9    A(2,1,19)              89.9041         estimate D2E/DX2                !
 ! A10   A(2,1,20)              61.8629         estimate D2E/DX2                !
 ! A11   A(2,1,21)              68.837          estimate D2E/DX2                !
 ! A12   A(3,1,4)               84.4708         estimate D2E/DX2                !
 ! A13   A(3,1,7)              134.0571         estimate D2E/DX2                !
 ! A14   A(3,1,8)              143.1257         estimate D2E/DX2                !
 ! A15   A(3,1,9)              108.6138         estimate D2E/DX2                !
 ! A16   A(3,1,10)              87.8754         estimate D2E/DX2                !
 ! A17   A(3,1,11)              99.4213         estimate D2E/DX2                !
 ! A18   A(3,1,17)              85.5999         estimate D2E/DX2                !
 ! A19   A(3,1,18)             118.6923         estimate D2E/DX2                !
 ! A20   A(3,1,19)             139.1419         estimate D2E/DX2                !
 ! A21   A(3,1,20)             117.0141         estimate D2E/DX2                !
 ! A22   A(3,1,21)              86.6089         estimate D2E/DX2                !
 ! A23   A(4,1,7)               73.2071         estimate D2E/DX2                !
 ! A24   A(4,1,8)              107.0647         estimate D2E/DX2                !
 ! A25   A(4,1,9)              121.1693         estimate D2E/DX2                !
 ! A26   A(4,1,10)              97.8449         estimate D2E/DX2                !
 ! A27   A(4,1,11)              69.2765         estimate D2E/DX2                !
 ! A28   A(4,1,17)              74.5775         estimate D2E/DX2                !
 ! A29   A(4,1,18)              68.2614         estimate D2E/DX2                !
 ! A30   A(4,1,19)              94.6961         estimate D2E/DX2                !
 ! A31   A(4,1,20)             121.439          estimate D2E/DX2                !
 ! A32   A(4,1,21)             111.3489         estimate D2E/DX2                !
 ! A33   A(7,1,9)               56.4216         estimate D2E/DX2                !
 ! A34   A(7,1,10)              57.273          estimate D2E/DX2                !
 ! A35   A(7,1,17)             124.0931         estimate D2E/DX2                !
 ! A36   A(7,1,18)              89.8297         estimate D2E/DX2                !
 ! A37   A(7,1,19)              83.3998         estimate D2E/DX2                !
 ! A38   A(7,1,20)             108.8836         estimate D2E/DX2                !
 ! A39   A(7,1,21)             138.725          estimate D2E/DX2                !
 ! A40   A(8,1,10)              56.3388         estimate D2E/DX2                !
 ! A41   A(8,1,11)              55.8479         estimate D2E/DX2                !
 ! A42   A(8,1,17)             131.0134         estimate D2E/DX2                !
 ! A43   A(8,1,18)              97.9378         estimate D2E/DX2                !
 ! A44   A(8,1,19)              76.0461         estimate D2E/DX2                !
 ! A45   A(8,1,20)              87.2514         estimate D2E/DX2                !
 ! A46   A(8,1,21)             118.9988         estimate D2E/DX2                !
 ! A47   A(9,1,11)              52.2294         estimate D2E/DX2                !
 ! A48   A(9,1,17)             158.8951         estimate D2E/DX2                !
 ! A49   A(9,1,18)             132.6288         estimate D2E/DX2                !
 ! A50   A(9,1,19)             106.5674         estimate D2E/DX2                !
 ! A51   A(9,1,20)             103.2634         estimate D2E/DX2                !
 ! A52   A(9,1,21)             126.1083         estimate D2E/DX2                !
 ! A53   A(10,1,18)            147.0765         estimate D2E/DX2                !
 ! A54   A(10,1,19)            132.3711         estimate D2E/DX2                !
 ! A55   A(10,1,20)            133.7718         estimate D2E/DX2                !
 ! A56   A(10,1,21)            149.5677         estimate D2E/DX2                !
 ! A57   A(11,1,17)            142.7388         estimate D2E/DX2                !
 ! A58   A(11,1,18)            118.0686         estimate D2E/DX2                !
 ! A59   A(11,1,19)            118.5147         estimate D2E/DX2                !
 ! A60   A(11,1,20)            142.1697         estimate D2E/DX2                !
 ! A61   A(17,1,19)             55.2984         estimate D2E/DX2                !
 ! A62   A(17,1,20)             55.7436         estimate D2E/DX2                !
 ! A63   A(18,1,20)             53.4389         estimate D2E/DX2                !
 ! A64   A(18,1,21)             57.9679         estimate D2E/DX2                !
 ! A65   A(19,1,21)             55.6183         estimate D2E/DX2                !
 ! A66   A(1,4,5)              130.5766         estimate D2E/DX2                !
 ! A67   A(1,4,15)             117.6758         estimate D2E/DX2                !
 ! A68   A(5,4,15)             109.7107         estimate D2E/DX2                !
 ! A69   A(4,5,6)              111.0445         estimate D2E/DX2                !
 ! A70   A(4,5,12)             126.4958         estimate D2E/DX2                !
 ! A71   A(6,5,12)             122.4447         estimate D2E/DX2                !
 ! A72   A(5,6,7)              102.2129         estimate D2E/DX2                !
 ! A73   A(5,6,22)             111.4386         estimate D2E/DX2                !
 ! A74   A(5,6,23)             110.7347         estimate D2E/DX2                !
 ! A75   A(7,6,22)             112.9004         estimate D2E/DX2                !
 ! A76   A(7,6,23)             111.1107         estimate D2E/DX2                !
 ! A77   A(22,6,23)            108.3881         estimate D2E/DX2                !
 ! A78   A(1,7,6)              108.9993         estimate D2E/DX2                !
 ! A79   A(6,7,8)              141.6381         estimate D2E/DX2                !
 ! A80   A(6,7,11)             111.8047         estimate D2E/DX2                !
 ! A81   A(8,7,11)             106.309          estimate D2E/DX2                !
 ! A82   A(1,8,24)             112.8618         estimate D2E/DX2                !
 ! A83   A(7,8,9)              107.4457         estimate D2E/DX2                !
 ! A84   A(7,8,24)             128.3661         estimate D2E/DX2                !
 ! A85   A(9,8,24)             124.1806         estimate D2E/DX2                !
 ! A86   A(1,9,25)             120.9685         estimate D2E/DX2                !
 ! A87   A(8,9,10)             111.0943         estimate D2E/DX2                !
 ! A88   A(8,9,25)             123.2743         estimate D2E/DX2                !
 ! A89   A(10,9,25)            125.5776         estimate D2E/DX2                !
 ! A90   A(1,10,26)            127.0803         estimate D2E/DX2                !
 ! A91   A(9,10,11)            105.2654         estimate D2E/DX2                !
 ! A92   A(9,10,26)            127.7741         estimate D2E/DX2                !
 ! A93   A(11,10,26)           126.7876         estimate D2E/DX2                !
 ! A94   A(1,11,27)            132.7054         estimate D2E/DX2                !
 ! A95   A(7,11,10)            109.591          estimate D2E/DX2                !
 ! A96   A(7,11,27)            126.4411         estimate D2E/DX2                !
 ! A97   A(10,11,27)           123.1067         estimate D2E/DX2                !
 ! A98   A(5,12,13)            117.6412         estimate D2E/DX2                !
 ! A99   A(5,12,28)            121.2433         estimate D2E/DX2                !
 ! A100  A(13,12,28)           121.1121         estimate D2E/DX2                !
 ! A101  A(12,13,14)           119.1804         estimate D2E/DX2                !
 ! A102  A(12,13,29)           120.1919         estimate D2E/DX2                !
 ! A103  A(14,13,29)           120.3006         estimate D2E/DX2                !
 ! A104  A(13,14,15)           118.2773         estimate D2E/DX2                !
 ! A105  A(13,14,30)           120.1219         estimate D2E/DX2                !
 ! A106  A(15,14,30)           120.9901         estimate D2E/DX2                !
 ! A107  A(4,15,14)            126.5548         estimate D2E/DX2                !
 ! A108  A(4,15,16)            108.2361         estimate D2E/DX2                !
 ! A109  A(14,15,16)           120.8164         estimate D2E/DX2                !
 ! A110  A(15,16,17)           104.8224         estimate D2E/DX2                !
 ! A111  A(15,16,31)           111.7348         estimate D2E/DX2                !
 ! A112  A(15,16,32)           109.5351         estimate D2E/DX2                !
 ! A113  A(17,16,31)           109.8798         estimate D2E/DX2                !
 ! A114  A(17,16,32)           112.2388         estimate D2E/DX2                !
 ! A115  A(31,16,32)           108.6327         estimate D2E/DX2                !
 ! A116  A(1,17,16)             93.507          estimate D2E/DX2                !
 ! A117  A(16,17,18)           128.3267         estimate D2E/DX2                !
 ! A118  A(16,17,21)           121.417          estimate D2E/DX2                !
 ! A119  A(18,17,21)           108.1529         estimate D2E/DX2                !
 ! A120  A(1,18,33)            127.7184         estimate D2E/DX2                !
 ! A121  A(17,18,19)           106.4954         estimate D2E/DX2                !
 ! A122  A(17,18,33)           125.9646         estimate D2E/DX2                !
 ! A123  A(19,18,33)           127.4976         estimate D2E/DX2                !
 ! A124  A(1,19,34)            131.9827         estimate D2E/DX2                !
 ! A125  A(18,19,20)           107.9017         estimate D2E/DX2                !
 ! A126  A(18,19,34)           126.5652         estimate D2E/DX2                !
 ! A127  A(20,19,34)           124.7805         estimate D2E/DX2                !
 ! A128  A(1,20,35)            124.7739         estimate D2E/DX2                !
 ! A129  A(19,20,21)           110.9504         estimate D2E/DX2                !
 ! A130  A(19,20,35)           123.3694         estimate D2E/DX2                !
 ! A131  A(21,20,35)           125.6701         estimate D2E/DX2                !
 ! A132  A(1,21,36)            114.8247         estimate D2E/DX2                !
 ! A133  A(17,21,20)           105.8959         estimate D2E/DX2                !
 ! A134  A(17,21,36)           126.976          estimate D2E/DX2                !
 ! A135  A(20,21,36)           127.1129         estimate D2E/DX2                !
 ! A136  L(2,1,4,3,-1)         174.4708         estimate D2E/DX2                !
 ! A137  L(10,1,17,2,-1)       186.9642         estimate D2E/DX2                !
 ! A138  L(11,1,21,2,-1)       180.0017         estimate D2E/DX2                !
 ! A139  L(2,1,4,3,-2)         179.3551         estimate D2E/DX2                !
 ! A140  L(10,1,17,2,-2)       173.2795         estimate D2E/DX2                !
 ! A141  L(11,1,21,2,-2)       186.4731         estimate D2E/DX2                !
 ! D1    D(3,1,4,5)            158.4012         estimate D2E/DX2                !
 ! D2    D(3,1,4,15)           -39.6889         estimate D2E/DX2                !
 ! D3    D(7,1,4,5)             19.0287         estimate D2E/DX2                !
 ! D4    D(7,1,4,15)          -179.0614         estimate D2E/DX2                !
 ! D5    D(8,1,4,5)             14.2084         estimate D2E/DX2                !
 ! D6    D(8,1,4,15)           176.1183         estimate D2E/DX2                !
 ! D7    D(9,1,4,5)             49.9663         estimate D2E/DX2                !
 ! D8    D(9,1,4,15)          -148.1237         estimate D2E/DX2                !
 ! D9    D(10,1,4,5)            71.3209         estimate D2E/DX2                !
 ! D10   D(10,1,4,15)         -126.7692         estimate D2E/DX2                !
 ! D11   D(11,1,4,5)            56.1346         estimate D2E/DX2                !
 ! D12   D(11,1,4,15)         -141.9554         estimate D2E/DX2                !
 ! D13   D(17,1,4,5)          -114.6515         estimate D2E/DX2                !
 ! D14   D(17,1,4,15)           47.2585         estimate D2E/DX2                !
 ! D15   D(18,1,4,5)           -77.6897         estimate D2E/DX2                !
 ! D16   D(18,1,4,15)           84.2203         estimate D2E/DX2                !
 ! D17   D(19,1,4,5)           -62.6193         estimate D2E/DX2                !
 ! D18   D(19,1,4,15)           99.2907         estimate D2E/DX2                !
 ! D19   D(20,1,4,5)           -83.1957         estimate D2E/DX2                !
 ! D20   D(20,1,4,15)           78.7142         estimate D2E/DX2                !
 ! D21   D(21,1,4,5)          -117.4326         estimate D2E/DX2                !
 ! D22   D(21,1,4,15)           44.4774         estimate D2E/DX2                !
 ! D23   D(2,1,7,6)            152.2103         estimate D2E/DX2                !
 ! D24   D(3,1,7,6)            -96.5562         estimate D2E/DX2                !
 ! D25   D(4,1,7,6)            -32.1545         estimate D2E/DX2                !
 ! D26   D(9,1,7,6)            179.7156         estimate D2E/DX2                !
 ! D27   D(10,1,7,6)          -143.4647         estimate D2E/DX2                !
 ! D28   D(17,1,7,6)            25.1822         estimate D2E/DX2                !
 ! D29   D(18,1,7,6)            35.1411         estimate D2E/DX2                !
 ! D30   D(19,1,7,6)            64.7956         estimate D2E/DX2                !
 ! D31   D(20,1,7,6)            86.048          estimate D2E/DX2                !
 ! D32   D(21,1,7,6)            71.2971         estimate D2E/DX2                !
 ! D33   D(2,1,8,24)            66.9973         estimate D2E/DX2                !
 ! D34   D(3,1,8,24)           139.1837         estimate D2E/DX2                !
 ! D35   D(4,1,8,24)          -116.8558         estimate D2E/DX2                !
 ! D36   D(10,1,8,24)          155.0285         estimate D2E/DX2                !
 ! D37   D(11,1,8,24)         -165.8961         estimate D2E/DX2                !
 ! D38   D(17,1,8,24)          -32.6929         estimate D2E/DX2                !
 ! D39   D(18,1,8,24)          -47.2438         estimate D2E/DX2                !
 ! D40   D(19,1,8,24)          -26.1698         estimate D2E/DX2                !
 ! D41   D(20,1,8,24)            5.2513         estimate D2E/DX2                !
 ! D42   D(21,1,8,24)           10.4121         estimate D2E/DX2                !
 ! D43   D(2,1,9,25)            -3.7873         estimate D2E/DX2                !
 ! D44   D(3,1,9,25)            75.0544         estimate D2E/DX2                !
 ! D45   D(4,1,9,25)           169.9249         estimate D2E/DX2                !
 ! D46   D(7,1,9,25)          -153.864          estimate D2E/DX2                !
 ! D47   D(11,1,9,25)          162.6207         estimate D2E/DX2                !
 ! D48   D(17,1,9,25)          -55.3216         estimate D2E/DX2                !
 ! D49   D(18,1,9,25)         -101.8821         estimate D2E/DX2                !
 ! D50   D(19,1,9,25)          -83.8281         estimate D2E/DX2                !
 ! D51   D(20,1,9,25)          -49.8219         estimate D2E/DX2                !
 ! D52   D(21,1,9,25)          -24.6417         estimate D2E/DX2                !
 ! D53   D(2,1,10,26)          -80.0049         estimate D2E/DX2                !
 ! D54   D(3,1,10,26)           10.3217         estimate D2E/DX2                !
 ! D55   D(4,1,10,26)           94.4419         estimate D2E/DX2                !
 ! D56   D(7,1,10,26)          158.6425         estimate D2E/DX2                !
 ! D57   D(8,1,10,26)         -160.2421         estimate D2E/DX2                !
 ! D58   D(18,1,10,26)         156.0768         estimate D2E/DX2                !
 ! D59   D(19,1,10,26)        -161.8163         estimate D2E/DX2                !
 ! D60   D(20,1,10,26)        -116.1128         estimate D2E/DX2                !
 ! D61   D(21,1,10,26)         -69.3079         estimate D2E/DX2                !
 ! D62   D(26,10,17,16)         38.8984         estimate D2E/DX2                !
 ! D63   D(2,1,11,27)         -146.9618         estimate D2E/DX2                !
 ! D64   D(3,1,11,27)          -53.2785         estimate D2E/DX2                !
 ! D65   D(4,1,11,27)           27.0962         estimate D2E/DX2                !
 ! D66   D(8,1,11,27)          156.5746         estimate D2E/DX2                !
 ! D67   D(9,1,11,27)         -159.583          estimate D2E/DX2                !
 ! D68   D(17,1,11,27)          41.8663         estimate D2E/DX2                !
 ! D69   D(18,1,11,27)          76.515          estimate D2E/DX2                !
 ! D70   D(19,1,11,27)         111.0155         estimate D2E/DX2                !
 ! D71   D(20,1,11,27)         142.0598         estimate D2E/DX2                !
 ! D72   D(27,11,21,36)        -90.8866         estimate D2E/DX2                !
 ! D73   D(2,1,17,16)          120.0847         estimate D2E/DX2                !
 ! D74   D(3,1,17,16)           31.3239         estimate D2E/DX2                !
 ! D75   D(4,1,17,16)          -54.1439         estimate D2E/DX2                !
 ! D76   D(7,1,17,16)         -110.8704         estimate D2E/DX2                !
 ! D77   D(8,1,17,16)         -153.5546         estimate D2E/DX2                !
 ! D78   D(9,1,17,16)          164.9302         estimate D2E/DX2                !
 ! D79   D(11,1,17,16)         -68.4648         estimate D2E/DX2                !
 ! D80   D(19,1,17,16)        -161.2615         estimate D2E/DX2                !
 ! D81   D(20,1,17,16)         158.4498         estimate D2E/DX2                !
 ! D82   D(2,1,18,33)         -164.2492         estimate D2E/DX2                !
 ! D83   D(3,1,18,33)           90.7628         estimate D2E/DX2                !
 ! D84   D(4,1,18,33)           20.4253         estimate D2E/DX2                !
 ! D85   D(7,1,18,33)          -51.5245         estimate D2E/DX2                !
 ! D86   D(8,1,18,33)          -84.8453         estimate D2E/DX2                !
 ! D87   D(9,1,18,33)          -92.5471         estimate D2E/DX2                !
 ! D88   D(10,1,18,33)         -49.3663         estimate D2E/DX2                !
 ! D89   D(11,1,18,33)         -29.4578         estimate D2E/DX2                !
 ! D90   D(20,1,18,33)        -165.4245         estimate D2E/DX2                !
 ! D91   D(21,1,18,33)         155.8042         estimate D2E/DX2                !
 ! D92   D(2,1,19,34)          -88.7771         estimate D2E/DX2                !
 ! D93   D(3,1,19,34)         -178.6662         estimate D2E/DX2                !
 ! D94   D(4,1,19,34)           94.3611         estimate D2E/DX2                !
 ! D95   D(7,1,19,34)           21.8984         estimate D2E/DX2                !
 ! D96   D(8,1,19,34)          -12.0771         estimate D2E/DX2                !
 ! D97   D(9,1,19,34)          -30.1275         estimate D2E/DX2                !
 ! D98   D(10,1,19,34)         -10.727          estimate D2E/DX2                !
 ! D99   D(11,1,19,34)          25.4268         estimate D2E/DX2                !
 ! D100  D(17,1,19,34)         161.938          estimate D2E/DX2                !
 ! D101  D(21,1,19,34)        -152.9089         estimate D2E/DX2                !
 ! D102  D(2,1,20,35)          -23.1328         estimate D2E/DX2                !
 ! D103  D(3,1,20,35)          -97.3107         estimate D2E/DX2                !
 ! D104  D(4,1,20,35)          162.0329         estimate D2E/DX2                !
 ! D105  D(7,1,20,35)           80.5889         estimate D2E/DX2                !
 ! D106  D(8,1,20,35)           53.6727         estimate D2E/DX2                !
 ! D107  D(9,1,20,35)           21.9164         estimate D2E/DX2                !
 ! D108  D(10,1,20,35)          18.208          estimate D2E/DX2                !
 ! D109  D(11,1,20,35)          65.6572         estimate D2E/DX2                !
 ! D110  D(17,1,20,35)        -160.4765         estimate D2E/DX2                !
 ! D111  D(18,1,20,35)         155.6622         estimate D2E/DX2                !
 ! D112  D(2,1,21,36)           56.8681         estimate D2E/DX2                !
 ! D113  D(3,1,21,36)          -34.4463         estimate D2E/DX2                !
 ! D114  D(4,1,21,36)         -117.1619         estimate D2E/DX2                !
 ! D115  D(7,1,21,36)          154.2664         estimate D2E/DX2                !
 ! D116  D(8,1,21,36)          117.6065         estimate D2E/DX2                !
 ! D117  D(9,1,21,36)           76.1972         estimate D2E/DX2                !
 ! D118  D(10,1,21,36)          45.5223         estimate D2E/DX2                !
 ! D119  D(18,1,21,36)        -161.6316         estimate D2E/DX2                !
 ! D120  D(19,1,21,36)         162.0995         estimate D2E/DX2                !
 ! D121  D(1,4,5,6)             -1.9222         estimate D2E/DX2                !
 ! D122  D(1,4,5,12)           176.6882         estimate D2E/DX2                !
 ! D123  D(15,4,5,6)          -164.9385         estimate D2E/DX2                !
 ! D124  D(15,4,5,12)           13.6719         estimate D2E/DX2                !
 ! D125  D(1,4,15,14)          177.7251         estimate D2E/DX2                !
 ! D126  D(1,4,15,16)          -25.9616         estimate D2E/DX2                !
 ! D127  D(5,4,15,14)          -16.7834         estimate D2E/DX2                !
 ! D128  D(5,4,15,16)          139.5299         estimate D2E/DX2                !
 ! D129  D(4,5,6,7)            -26.2687         estimate D2E/DX2                !
 ! D130  D(4,5,6,22)            94.5771         estimate D2E/DX2                !
 ! D131  D(4,5,6,23)          -144.6911         estimate D2E/DX2                !
 ! D132  D(12,5,6,7)           155.055          estimate D2E/DX2                !
 ! D133  D(12,5,6,22)          -84.0992         estimate D2E/DX2                !
 ! D134  D(12,5,6,23)           36.6326         estimate D2E/DX2                !
 ! D135  D(4,5,12,13)           -3.1719         estimate D2E/DX2                !
 ! D136  D(4,5,12,28)          177.4972         estimate D2E/DX2                !
 ! D137  D(6,5,12,13)          175.2913         estimate D2E/DX2                !
 ! D138  D(6,5,12,28)           -4.0396         estimate D2E/DX2                !
 ! D139  D(5,6,7,1)             37.0654         estimate D2E/DX2                !
 ! D140  D(5,6,7,8)            123.3821         estimate D2E/DX2                !
 ! D141  D(5,6,7,11)           -49.7327         estimate D2E/DX2                !
 ! D142  D(22,6,7,1)           -82.7624         estimate D2E/DX2                !
 ! D143  D(22,6,7,8)             3.5542         estimate D2E/DX2                !
 ! D144  D(22,6,7,11)         -169.5605         estimate D2E/DX2                !
 ! D145  D(23,6,7,1)           155.2207         estimate D2E/DX2                !
 ! D146  D(23,6,7,8)          -118.4626         estimate D2E/DX2                !
 ! D147  D(23,6,7,11)           68.4226         estimate D2E/DX2                !
 ! D148  D(6,7,8,9)           -172.3961         estimate D2E/DX2                !
 ! D149  D(6,7,8,24)             6.622          estimate D2E/DX2                !
 ! D150  D(11,7,8,9)             0.9442         estimate D2E/DX2                !
 ! D151  D(11,7,8,24)          179.9624         estimate D2E/DX2                !
 ! D152  D(6,7,11,10)          171.5137         estimate D2E/DX2                !
 ! D153  D(6,7,11,27)          -18.9189         estimate D2E/DX2                !
 ! D154  D(8,7,11,10)           -4.0402         estimate D2E/DX2                !
 ! D155  D(8,7,11,27)          165.5271         estimate D2E/DX2                !
 ! D156  D(7,8,9,10)             2.6041         estimate D2E/DX2                !
 ! D157  D(7,8,9,25)          -179.9299         estimate D2E/DX2                !
 ! D158  D(24,8,9,10)         -176.4654         estimate D2E/DX2                !
 ! D159  D(24,8,9,25)            1.0007         estimate D2E/DX2                !
 ! D160  D(8,9,10,11)           -4.9761         estimate D2E/DX2                !
 ! D161  D(8,9,10,26)          179.5839         estimate D2E/DX2                !
 ! D162  D(25,9,10,11)         177.6287         estimate D2E/DX2                !
 ! D163  D(25,9,10,26)           2.1887         estimate D2E/DX2                !
 ! D164  D(9,10,11,7)            5.5343         estimate D2E/DX2                !
 ! D165  D(9,10,11,27)        -164.4507         estimate D2E/DX2                !
 ! D166  D(26,10,11,7)        -178.9661         estimate D2E/DX2                !
 ! D167  D(26,10,11,27)         11.0489         estimate D2E/DX2                !
 ! D168  D(5,12,13,14)          -6.1            estimate D2E/DX2                !
 ! D169  D(5,12,13,29)        -179.553          estimate D2E/DX2                !
 ! D170  D(28,12,13,14)        173.2318         estimate D2E/DX2                !
 ! D171  D(28,12,13,29)         -0.2211         estimate D2E/DX2                !
 ! D172  D(12,13,14,15)          3.4857         estimate D2E/DX2                !
 ! D173  D(12,13,14,30)       -167.645          estimate D2E/DX2                !
 ! D174  D(29,13,14,15)        176.9314         estimate D2E/DX2                !
 ! D175  D(29,13,14,30)          5.8006         estimate D2E/DX2                !
 ! D176  D(13,14,15,4)           9.3999         estimate D2E/DX2                !
 ! D177  D(13,14,15,16)       -144.2225         estimate D2E/DX2                !
 ! D178  D(30,14,15,4)        -179.5497         estimate D2E/DX2                !
 ! D179  D(30,14,15,16)         26.8279         estimate D2E/DX2                !
 ! D180  D(4,15,16,17)         -27.0773         estimate D2E/DX2                !
 ! D181  D(4,15,16,31)        -146.0354         estimate D2E/DX2                !
 ! D182  D(4,15,16,32)          93.5399         estimate D2E/DX2                !
 ! D183  D(14,15,16,17)        130.8513         estimate D2E/DX2                !
 ! D184  D(14,15,16,31)         11.8933         estimate D2E/DX2                !
 ! D185  D(14,15,16,32)       -108.5315         estimate D2E/DX2                !
 ! D186  D(15,16,17,1)          52.428          estimate D2E/DX2                !
 ! D187  D(15,16,17,18)        -33.4238         estimate D2E/DX2                !
 ! D188  D(15,16,17,21)        128.0576         estimate D2E/DX2                !
 ! D189  D(31,16,17,1)         172.6281         estimate D2E/DX2                !
 ! D190  D(31,16,17,18)         86.7763         estimate D2E/DX2                !
 ! D191  D(31,16,17,21)       -111.7424         estimate D2E/DX2                !
 ! D192  D(32,16,17,1)         -66.3812         estimate D2E/DX2                !
 ! D193  D(32,16,17,18)       -152.2329         estimate D2E/DX2                !
 ! D194  D(32,16,17,21)          9.2484         estimate D2E/DX2                !
 ! D195  D(16,17,18,19)        155.4641         estimate D2E/DX2                !
 ! D196  D(16,17,18,33)        -26.7626         estimate D2E/DX2                !
 ! D197  D(21,17,18,19)         -7.9623         estimate D2E/DX2                !
 ! D198  D(21,17,18,33)        169.811          estimate D2E/DX2                !
 ! D199  D(16,17,21,20)       -159.4093         estimate D2E/DX2                !
 ! D200  D(16,17,21,36)         19.2448         estimate D2E/DX2                !
 ! D201  D(18,17,21,20)          5.3892         estimate D2E/DX2                !
 ! D202  D(18,17,21,36)       -175.9567         estimate D2E/DX2                !
 ! D203  D(17,18,19,20)          7.1287         estimate D2E/DX2                !
 ! D204  D(17,18,19,34)        177.5129         estimate D2E/DX2                !
 ! D205  D(33,18,19,20)       -170.5997         estimate D2E/DX2                !
 ! D206  D(33,18,19,34)         -0.2156         estimate D2E/DX2                !
 ! D207  D(18,19,20,21)         -4.0641         estimate D2E/DX2                !
 ! D208  D(18,19,20,35)        174.839          estimate D2E/DX2                !
 ! D209  D(34,19,20,21)       -174.6629         estimate D2E/DX2                !
 ! D210  D(34,19,20,35)          4.2403         estimate D2E/DX2                !
 ! D211  D(19,20,21,17)         -1.068          estimate D2E/DX2                !
 ! D212  D(19,20,21,36)       -179.7197         estimate D2E/DX2                !
 ! D213  D(35,20,21,17)       -179.9404         estimate D2E/DX2                !
 ! D214  D(35,20,21,36)          1.4079         estimate D2E/DX2                !
 --------------------------------------------------------------------------------
 Trust Radius=3.00D-01 FncErr=1.00D-07 GrdErr=1.00D-07
 Number of steps in this run=    216 maximum allowed number of steps=    216.
 GradGradGradGradGradGradGradGradGradGradGradGradGradGradGradGradGradGrad

 Leave Link  103 at Mon Sep 15 12:53:49 2025, MaxMem=    33554432 cpu:         0.0
 (Enter /appl/g09.shchoi/G09Files/g09/l202.exe)
                          Input orientation:                          
 ---------------------------------------------------------------------
 Center     Atomic      Atomic             Coordinates (Angstroms)
 Number     Number       Type             X           Y           Z
 ---------------------------------------------------------------------
      1         40           0        0.000000    0.000000    0.000000
      2         17           0        0.000000    0.000000   -1.939000
      3         17           0        1.939000    0.000000    0.000000
      4          7           0        0.165921    0.019290    1.713879
      5          6           0       -0.744668    0.428364    2.726934
      6          6           0       -2.031232    0.956788    2.121796
      7          6           0       -1.582870    1.428039    0.797931
      8          6           0       -1.822070    1.268279   -0.509447
      9          6           0       -0.790730    1.997162   -1.234188
     10          6           0        0.095521    2.544857   -0.391231
     11          6           0       -0.406801    2.281528    0.897259
     12          6           0       -0.544545    0.347868    4.099400
     13          6           0        0.630371   -0.244085    4.545811
     14          6           0        1.484862   -0.839248    3.620948
     15          6           0        1.158523   -0.750909    2.267083
     16          6           0        1.446228   -1.880359    1.336536
     17          6           0        0.167678   -2.097343    0.591341
     18          6           0       -1.207246   -1.926496    1.074289
     19          6           0       -1.962681   -1.697610   -0.004344
     20          6           0       -1.133460   -1.886178   -1.176811
     21          6           0        0.136012   -2.140024   -0.830141
     22          1           0       -2.793395    0.176278    2.059584
     23          1           0       -2.430779    1.783182    2.720412
     24          1           0       -2.605126    0.703663   -0.979604
     25          1           0       -0.741805    2.039658   -2.311621
     26          1           0        0.964434    3.131939   -0.637263
     27          1           0       -0.058024    2.794271    1.783540
     28          1           0       -1.283170    0.723218    4.798187
     29          1           0        0.825878   -0.335279    5.610478
     30          1           0        2.295952   -1.474886    3.959625
     31          1           0        1.721093   -2.791916    1.877883
     32          1           0        2.271865   -1.605843    0.671793
     33          1           0       -1.533755   -2.011717    2.097840
     34          1           0       -3.034173   -1.563122   -0.022689
     35          1           0       -1.513834   -1.842482   -2.186746
     36          1           0        0.965961   -2.316128   -1.490442
 ---------------------------------------------------------------------
                    Distance matrix (angstroms):
                    1          2          3          4          5
     1  Zr   0.000000
     2  Cl   1.939000   0.000000
     3  Cl   1.939000   2.742160   0.000000
     4  N    1.722000   3.656696   2.466083   0.000000
     5  C    2.859055   4.744361   3.849901   1.422249   0.000000
     6  C    3.089234   4.640195   4.602196   2.423382   1.516796
     7  C    2.276284   3.469231   3.883241   2.425243   2.328730
     8  C    2.277719   2.640472   4.001714   3.233459   3.512892
     9  C    2.477324   2.260679   3.600459   3.676719   4.260720
    10  C    2.576525   2.980102   3.166666   3.288606   3.861141
    11  C    2.485142   3.662680   3.393115   2.472367   2.626039
    12  C    4.150014   6.072875   4.805630   2.510664   1.389314
    13  C    4.595796   6.519947   4.736717   2.881825   2.377232
    14  C    4.002552   5.815684   3.744576   2.472571   2.716046
    15  C    2.654375   4.426870   2.512504   1.372771   2.285669
    16  C    2.722802   4.044312   2.359005   2.321689   3.473245
    17  C    2.185554   3.290834   2.808222   2.395878   3.431083
    18  C    2.514543   3.774750   3.842440   2.465917   2.913860
    19  C    2.594998   3.236802   4.254999   3.229704   3.669224
    20  C    2.495453   2.328805   3.792435   3.698012   4.554941
    21  C    2.299421   2.414078   2.918836   3.337001   4.474930
    22  H    3.475056   4.880861   5.164157   2.983573   2.169375
    23  H    4.060673   5.549644   5.447508   3.296554   2.162994
    24  H    2.870792   2.863959   4.701472   3.924528   4.156382
    25  H    3.170815   2.202118   4.085402   4.594617   5.289925
    26  H    3.338454   3.526144   3.341395   3.981717   4.642000
    27  H    3.315468   4.654956   3.870022   2.784873   2.637989
    28  H    5.019180   6.896322   5.824776   3.479703   2.160327
    29  H    5.680840   7.601914   5.729652   3.967964   3.371141
    30  H    4.808879   6.499267   4.240441   3.437001   3.793055
    31  H    3.779338   5.032450   3.371754   3.216883   4.143799
    32  H    2.862063   3.815277   1.772240   2.856921   4.178644
    33  H    3.286388   4.763978   4.528572   2.676064   2.640533
    34  H    3.413220   3.914308   5.213091   3.969924   4.094909
    35  H    3.235475   2.397460   4.483154   4.637096   5.467414
    36  H    2.918724   2.549262   2.921074   4.044987   5.314579
                    6          7          8          9         10
     6  C    0.000000
     7  C    1.475034   0.000000
     8  C    2.657859   1.338647   0.000000
     9  C    3.726104   2.254084   1.456084   0.000000
    10  C    3.655180   2.340594   2.306681   1.340145   0.000000
    11  C    2.427592   1.456519   2.237963   2.184338   1.407790
    12  C    2.547928   3.625547   4.870389   5.588196   5.040060
    13  C    3.795006   4.662729   5.818706   6.360118   5.695493
    14  C    4.223283   4.745630   5.695404   6.065962   5.429550
    15  C    3.621032   3.797560   4.546446   4.859052   4.365625
    16  C    4.556178   4.517856   4.899320   5.162148   4.938838
    17  C    4.062661   3.941500   4.061803   4.584330   4.745595
    18  C    3.176406   3.386794   3.618400   4.571395   4.882412
    19  C    3.401617   3.249244   3.011876   4.066611   4.731216
    20  C    4.446264   3.884020   3.296993   3.898857   4.664933
    21  C    4.795949   4.282085   3.943788   4.258922   4.705570
    22  H    1.092684   2.150360   2.955649   4.263241   4.467941
    23  H    1.095858   2.130965   3.326806   4.286538   4.079787
    24  H    3.164192   2.174709   1.073786   2.242762   3.321094
    25  H    4.742407   3.278838   2.238265   1.079380   2.155050
    26  H    4.617110   3.384053   3.354723   2.173623   1.077129
    27  H    2.717409   2.272261   3.270825   3.206076   2.194404
    28  H    2.788766   4.072916   5.362693   6.185061   5.670027
    29  H    4.690779   5.663212   6.858316   7.409666   6.696948
    30  H    5.292937   5.785201   6.667508   6.968388   6.319033
    31  H    5.309634   5.467219   5.893940   6.239352   6.022666
    32  H    5.214041   4.907069   5.139669   5.098421   4.805705
    33  H    3.009997   3.677513   4.199934   5.265512   5.441726
    34  H    3.457550   3.424433   3.118166   4.379085   5.177480
    35  H    5.164025   4.428247   3.547560   4.021582   5.006261
    36  H    5.722186   5.074641   4.645799   4.664344   5.059161
                   11         12         13         14         15
    11  C    0.000000
    12  C    3.743224   0.000000
    13  C    4.557014   1.389286   0.000000
    14  C    4.553693   2.399302   1.392747   0.000000
    15  C    3.677273   2.732240   2.393410   1.395440   0.000000
    16  C    4.576897   4.069592   3.693570   2.510765   1.491425
    17  C    4.426977   4.335066   4.391638   3.535011   2.367018
    18  C    4.287134   3.842291   4.273032   3.861998   2.898556
    19  C    4.366600   4.799563   5.435123   5.075932   3.974613
    20  C    4.711643   5.759877   6.209345   5.565085   4.289806
    21  C    4.777937   5.563554   5.721873   4.829453   3.545133
    22  H    3.388054   3.040990   4.252082   4.666116   4.064528
    23  H    2.769246   2.742191   4.100308   4.797953   4.417037
    24  H    3.293160   5.492619   6.472779   6.346153   5.178978
    25  H    3.235373   6.633420   7.356815   6.959995   5.688852
    26  H    2.226711   5.697722   6.194626   5.845813   4.852772
    27  H    1.081686   3.403645   4.163608   4.354196   3.779166
    28  H    4.291106   1.083863   2.158936   3.389571   3.813319
    29  H    5.530064   2.151303   1.086303   2.155568   3.385511
    30  H    5.549200   3.377927   2.152359   1.084714   2.163929
    31  H    5.588327   4.463910   3.846941   2.628116   2.152597
    32  H    4.726282   4.847436   4.422318   3.147151   2.124945
    33  H    4.598193   3.248449   3.714906   3.578630   2.977691
    34  H    4.746654   5.180902   6.003327   5.849937   4.845766
    35  H    5.267264   6.727019   7.244295   6.612713   5.307507
    36  H    5.359481   6.373761   6.390800   5.345722   4.075045
                   16         17         18         19         20
    16  C    0.000000
    17  C    1.495689   0.000000
    18  C    2.666800   1.467257   0.000000
    19  C    3.667699   2.247901   1.336608   0.000000
    20  C    3.601630   2.205428   2.252670   1.448394   0.000000
    21  C    2.545306   1.422475   2.340254   2.298300   1.340216
    22  H    4.767279   4.011614   2.812176   2.908838   4.181311
    23  H    5.510701   5.132582   4.238923   4.445146   5.507775
    24  H    5.334336   4.242870   3.618050   2.670202   2.985292
    25  H    5.784727   5.135087   5.235590   4.558644   4.105286
    26  H    5.408432   5.430440   5.764839   5.682704   5.465690
    27  H    4.930999   5.039858   4.910131   5.196272   5.641528
    28  H    5.119692   5.268594   4.571013   5.420927   6.521653
    29  H    4.586794   5.360022   5.219442   6.415468   7.232675
    30  H    2.786940   4.032660   4.560868   5.822252   6.189751
    31  H    1.095237   2.133241   3.157512   4.279074   4.277849
    32  H    1.094952   2.162324   3.516963   4.289168   3.884863
    33  H    3.078496   2.274148   1.077742   2.168368   3.301414
    34  H    4.692774   3.303676   2.161727   1.080055   2.247014
    35  H    4.601839   3.257331   3.276493   2.232785   1.080075
    36  H    2.900406   2.240299   3.384152   3.341855   2.165823
                   21         22         23         24         25
    21  C    0.000000
    22  H    4.721990   0.000000
    23  H    5.881019   1.774916   0.000000
    24  H    3.952560   3.090347   3.858222   0.000000
    25  H    4.520518   5.175775   5.314111   2.651625   0.000000
    26  H    5.340138   5.489098   4.961915   4.330759   2.628270
    27  H    5.587150   3.796359   2.744084   4.300387   4.219875
    28  H    6.472272   3.174881   2.599553   5.927125   7.250894
    29  H    6.724179   5.096045   4.842124   7.502024   8.417696
    30  H    5.296188   5.677848   5.873044   7.291271   7.804391
    31  H    3.204815   5.405903   6.235336   6.253037   6.852876
    32  H    2.665149   5.546059   6.147941   5.643223   5.592194
    33  H    3.373079   2.524971   3.948861   4.241672   6.040213
    34  H    3.321877   2.723848   4.368803   2.497615   4.845017
    35  H    2.156595   4.872780   6.169800   3.021749   3.960131
    36  H    1.075093   5.739994   6.787745   4.704546   4.750123
                   26         27         28         29         30
    26  H    0.000000
    27  H    2.649477   0.000000
    28  H    6.355924   3.857245   0.000000
    29  H    7.146682   5.022033   2.495659   0.000000
    30  H    6.642828   5.338750   4.283102   2.486994   0.000000
    31  H    6.480011   5.863415   5.468998   4.557274   2.529562
    32  H    5.086214   5.101506   5.923674   5.300549   3.290527
    33  H    6.338685   5.037270   3.851563   4.551586   4.291980
    34  H    6.197593   5.577347   5.615533   6.938311   6.654085
    35  H    5.769539   6.275511   7.444818   8.279047   7.240683
    36  H    5.514467   6.154972   7.337783   7.373361   5.672724
                   31         32         33         34         35
    31  H    0.000000
    32  H    1.778981   0.000000
    33  H    3.354270   4.084249   0.000000
    34  H    5.266371   5.351464   2.636121   0.000000
    35  H    5.280851   4.749607   4.287973   2.659439   0.000000
    36  H    3.484567   2.623957   4.383722   4.326938   2.618887
                   36
    36  H    0.000000
 Stoichiometry    C17H15Cl2NZr
 Framework group  C1[X(C17H15Cl2NZr)]
 Deg. of freedom   102
 Full point group                 C1      NOp   1
 Largest Abelian subgroup         C1      NOp   1
 Largest concise Abelian subgroup C1      NOp   1
                         Standard orientation:                         
 ---------------------------------------------------------------------
 Center     Atomic      Atomic             Coordinates (Angstroms)
 Number     Number       Type             X           Y           Z
 ---------------------------------------------------------------------
      1         40           0       -0.577408   -0.057436   -0.149647
      2         17           0       -2.488963   -0.350240   -0.290879
      3         17           0       -0.311439   -0.981700   -1.833309
      4          7           0        1.133111    0.138989   -0.178348
      5          6           0        1.967487    1.080282    0.485411
      6          6           0        1.143498    2.059791    1.299213
      7          6           0       -0.145558    2.054268    0.582254
      8          6           0       -1.451839    1.832509    0.773112
      9          6           0       -2.095122    1.862683   -0.532820
     10          6           0       -1.195330    2.041838   -1.509685
     11          6           0        0.031405    2.247805   -0.850462
     12          6           0        3.355737    1.122431    0.451103
     13          6           0        4.014056    0.117155   -0.246144
     14          6           0        3.276869   -0.945237   -0.763468
     15          6           0        1.888888   -0.917621   -0.622058
     16          6           0        1.119858   -2.173402   -0.385505
     17          6           0        0.230752   -1.864398    0.776860
     18          6           0        0.501798   -0.988128    1.922080
     19          6           0       -0.687255   -0.592697    2.387171
     20          6           0       -1.711205   -1.328316    1.674265
     21          6           0       -1.170839   -2.100920    0.721760
     22          1           0        1.052864    1.737763    2.339426
     23          1           0        1.599169    3.056309    1.284289
     24          1           0       -1.968322    1.645804    1.695827
     25          1           0       -3.154690    1.713462   -0.674630
     26          1           0       -1.375288    2.098922   -2.570139
     27          1           0        0.903553    2.659431   -1.340326
     28          1           0        3.907132    1.905092    0.959200
     29          1           0        5.099262    0.105760   -0.293615
     30          1           0        3.783285   -1.831189   -1.131213
     31          1           0        1.779121   -3.012097   -0.137501
     32          1           0        0.551311   -2.429605   -1.285523
     33          1           0        1.474290   -0.751729    2.321959
     34          1           0       -0.865280    0.031750    3.250243
     35          1           0       -2.763233   -1.261670    1.909550
     36          1           0       -1.690974   -2.748751    0.039412
 ---------------------------------------------------------------------
 Rotational constants (GHZ):      0.4820085      0.3347016      0.2925979
 Leave Link  202 at Mon Sep 15 12:53:49 2025, MaxMem=    33554432 cpu:         0.0
 (Enter /appl/g09.shchoi/G09Files/g09/l301.exe)
 Standard basis: SDD (6D, 10F)
 Ernie: Thresh=  0.10000D-02 Tol=  0.10000D-05 Strict=F.
 There are   285 symmetry adapted cartesian basis functions of A   symmetry.
 There are   285 symmetry adapted basis functions of A   symmetry.
   285 basis functions,   629 primitive gaussians,   285 cartesian basis functions
    85 alpha electrons       85 beta electrons
       nuclear repulsion energy      2371.9424912836 Hartrees.



 Warning!  Cl atom    2 may be hypervalent but has no d functions.
 Warning!  Cl atom    3 may be hypervalent but has no d functions.



 IExCor=    0 DFT=F Ex=HF Corr=None ExCW=0 ScaHFX=  1.000000
 ScaDFX=  1.000000  1.000000  1.000000  1.000000 ScalE2=  1.000000  1.000000
 IRadAn=      0 IRanWt=     -1 IRanGd=            0 ICorTp=0 IEmpDi=  4
 NAtoms=   36 NActive=   36 NUniq=   36 SFac= 1.00D+00 NAtFMM=   60 NAOKFM=F Big=F
 Integral buffers will be    131072 words long.
 Raffenetti 1 integral format.
 Two-electron integral symmetry is turned on.
 Leave Link  301 at Mon Sep 15 12:53:49 2025, MaxMem=    33554432 cpu:         0.0
 (Enter /appl/g09.shchoi/G09Files/g09/l402.exe)
 External calculation of energy and first derivatives.
 Running external command "/home/rxn_grp/programs/xtb-gaussian R"
         input file       "/home/rxn_grp/scratch/Gau-2493014.EIn"
         output file      "/home/rxn_grp/scratch/Gau-2493014.EOu"
         message file     "/home/rxn_grp/scratch/Gau-2493014.EMs"
         fchk file        "/home/rxn_grp/scratch/Gau-2493014.EFC"
         mat. el file     "/home/rxn_grp/scratch/Gau-2493014.EUF"

 ExternalExternalExternalExternalExternalExternalExternalExternalExternalExternal
 Output from external command:
 "/home/rxn_grp/programs/xtb-gaussian R /home/rxn_grp/scratch/Gau-2493014.EIn /home/rxn_grp/scratch/Gau-2493014.EOu /home/rxn_grp/scratch/Gau-2493014.EMs /home/rxn_grp/scratch/Gau-2493014.EFC /home/rxn_grp/scratch/Gau-2493014.EUF"
 normal termination of xtb
  
 ------- xtb command was ---------
 ?> xtb ./Gau-2493014.EIn  --grad --charge 0  >/dev/null 2>Gau-2493014.EMs
 ---------------------------------
              Control returned to Gaussian.
 ~~~~~~~~~~~~~~~~~~~~~~~~~~~~~~~~~~~~~~~~~~~~~~~~~~~~~~~~~~~~~~~~~~~~~~~~~
 ExternalExternalExternalExternalExternalExternalExternalExternalExternalExternal

 Recovered energy= -57.4457497263     dipole=      2.238101598400      0.441440997588      1.081682289040
 Energy=    -57.4457497     NIter=   0.
 Dipole moment=       2.238102       0.441441       1.081682
 Leave Link  402 at Mon Sep 15 12:53:49 2025, MaxMem=    33554432 cpu:         0.0
 (Enter /appl/g09.shchoi/G09Files/g09/l601.exe)
 Leave Link  601 at Mon Sep 15 12:53:50 2025, MaxMem=    33554432 cpu:         0.0
 (Enter /appl/g09.shchoi/G09Files/g09/l716.exe)
 Dipole        = 2.23810160D+00 4.41440998D-01 1.08168229D+00
 ***** Axes restored to original set *****
 -------------------------------------------------------------------
 Center     Atomic                   Forces (Hartrees/Bohr)
 Number     Number              X              Y              Z
 -------------------------------------------------------------------
      1       40          -0.259317928    0.017173123    0.027100743
      2       17           0.050966408    0.005938009   -0.333106876
      3       17           0.293016164    0.096332868   -0.058439362
      4        7          -0.007066010    0.001912688    0.318741769
      5        6           0.006940989    0.000196802   -0.010745781
      6        6          -0.004181293   -0.002872170    0.007650743
      7        6           0.023978662    0.060964337    0.044968086
      8        6          -0.017139242    0.018037942   -0.052655584
      9        6          -0.056839995    0.018502735   -0.030328081
     10        6           0.008840866    0.022824942    0.025679662
     11        6           0.003117817    0.001964949    0.009778143
     12        6           0.000261966   -0.000742241   -0.021226423
     13        6           0.014197207   -0.003214552    0.009607937
     14        6          -0.013286318    0.005951234    0.001310192
     15        6          -0.006800742   -0.015484243    0.010893424
     16        6           0.013482646   -0.054548946    0.032665281
     17        6          -0.006157203   -0.034272097    0.001686198
     18        6           0.057117505   -0.011983753    0.031366014
     19        6          -0.019052098   -0.006900910   -0.064001077
     20        6          -0.093719658   -0.029109786    0.001138715
     21        6           0.028870971   -0.046894008    0.037117494
     22        1          -0.001474118   -0.003099576    0.002096075
     23        1          -0.000780037   -0.001603656    0.000977884
     24        1          -0.008887142   -0.000371751   -0.005255474
     25        1          -0.008218352    0.014548156   -0.001050308
     26        1           0.001316789    0.003290719   -0.000660818
     27        1           0.000865822   -0.004133872    0.004886944
     28        1           0.001433522   -0.002480195   -0.005100633
     29        1           0.000435288    0.001707847   -0.004237459
     30        1          -0.002112408    0.003709317   -0.004106633
     31        1           0.002549518   -0.003679113    0.010941988
     32        1          -0.001389156   -0.039287052    0.012892388
     33        1           0.001663418    0.000248848    0.004231743
     34        1          -0.002887284   -0.002257378   -0.001559881
     35        1          -0.005500600   -0.005878190   -0.001274524
     36        1           0.005754023   -0.004491025   -0.001982507
 -------------------------------------------------------------------
 Cartesian Forces:  Max     0.333106876 RMS     0.063113824
 Leave Link  716 at Mon Sep 15 12:53:50 2025, MaxMem=    33554432 cpu:         0.0
 (Enter /appl/g09.shchoi/G09Files/g09/l103.exe)

 GradGradGradGradGradGradGradGradGradGradGradGradGradGradGradGradGradGrad
 Berny optimization.
 FormGI is forming the generalized inverse of G from B-inverse, IUseBI=4.
 Internal  Forces:  Max     0.333106877 RMS     0.028675434
 Search for a local minimum.
 Step number   1 out of a maximum of  216
 All quantities printed in internal units (Hartrees-Bohrs-Radians)
 RMS Force = .28675D-01 SwitMx=.10000D-02 MixMth= 1
 Mixed Optimization -- RFO/linear search
 Second derivative matrix not updated -- first step.
 ITU=  0
     Eigenvalues ---    0.01240   0.01385   0.01503   0.01527   0.01593
     Eigenvalues ---    0.01704   0.01769   0.01885   0.01992   0.02159
     Eigenvalues ---    0.02185   0.02192   0.02209   0.02228   0.02230
     Eigenvalues ---    0.02248   0.02362   0.02587   0.02641   0.02802
     Eigenvalues ---    0.02902   0.03082   0.03424   0.03610   0.03631
     Eigenvalues ---    0.03831   0.03864   0.03942   0.04174   0.04374
     Eigenvalues ---    0.04585   0.04894   0.05168   0.05324   0.05942
     Eigenvalues ---    0.06034   0.06321   0.06389   0.06522   0.06930
     Eigenvalues ---    0.07480   0.08016   0.08155   0.08290   0.08478
     Eigenvalues ---    0.08797   0.08990   0.09228   0.09766   0.11041
     Eigenvalues ---    0.12087   0.15680   0.15806   0.15910   0.15999
     Eigenvalues ---    0.16689   0.17173   0.17446   0.18132   0.18376
     Eigenvalues ---    0.19049   0.19548   0.20962   0.22343   0.25953
     Eigenvalues ---    0.26289   0.27302   0.28320   0.28985   0.29340
     Eigenvalues ---    0.30640   0.30775   0.31338   0.34062   0.34144
     Eigenvalues ---    0.34214   0.34247   0.34504   0.35243   0.35356
     Eigenvalues ---    0.35431   0.35532   0.35791   0.35985   0.35988
     Eigenvalues ---    0.36069   0.36269   0.36343   0.36594   0.36756
     Eigenvalues ---    0.38439   0.39945   0.40472   0.41371   0.42939
     Eigenvalues ---    0.44097   0.44417   0.46316   0.46765   0.46765
     Eigenvalues ---    0.46903   0.47257
 RFO step:  Lambda=-4.21566961D-01 EMin= 1.24021730D-02
 Linear search not attempted -- first point.
 Maximum step size (   0.300) exceeded in Quadratic search.
    -- Step size scaled by   0.433
 Iteration  1 RMS(Cart)=  0.02387675 RMS(Int)=  0.00027269
 Iteration  2 RMS(Cart)=  0.00027281 RMS(Int)=  0.00006910
 Iteration  3 RMS(Cart)=  0.00000017 RMS(Int)=  0.00006910
 ITry= 1 IFail=0 DXMaxC= 2.00D-01 DCOld= 1.00D+10 DXMaxT= 3.00D-01 DXLimC= 3.00D+00 Rises=F
 Variable       Old X    -DE/DX   Delta X   Delta X   Delta X     New X
                                 (Linear)    (Quad)   (Total)
    R1        3.66418   0.33311   0.00000   0.16215   0.16215   3.82633
    R2        3.66418   0.29302   0.00000   0.14263   0.14263   3.80681
    R3        3.25411   0.22101   0.00000   0.12188   0.12195   3.37606
    R4        4.30155   0.01440   0.00000   0.01263   0.01247   4.31403
    R5        4.30427   0.03684   0.00000   0.03033   0.03034   4.33461
    R6        4.68146   0.05202   0.00000   0.04267   0.04271   4.72417
    R7        4.86893   0.02177   0.00000   0.01788   0.01788   4.88681
    R8        4.69624   0.00691   0.00000   0.00517   0.00513   4.70137
    R9        4.13010   0.08809   0.00000   0.06454   0.06475   4.19485
   R10        4.75180   0.01339   0.00000   0.00882   0.00898   4.76078
   R11        4.90384   0.00706   0.00000   0.00678   0.00672   4.91055
   R12        4.71572   0.03564   0.00000   0.03095   0.03079   4.74651
   R13        4.34528   0.04964   0.00000   0.04158   0.04159   4.38687
   R14        2.68766  -0.05020   0.00000  -0.02431  -0.02417   2.66349
   R15        2.59416   0.01906   0.00000   0.01353   0.01339   2.60755
   R16        2.86633   0.01930   0.00000   0.00848   0.00860   2.87493
   R17        2.62542  -0.01681   0.00000  -0.00846  -0.00847   2.61695
   R18        2.78741   0.04416   0.00000   0.02249   0.02244   2.80985
   R19        2.06487   0.00312   0.00000   0.00176   0.00176   2.06664
   R20        2.07087  -0.00039   0.00000  -0.00022  -0.00022   2.07065
   R21        2.52968   0.04957   0.00000   0.02479   0.02484   2.55451
   R22        2.75242  -0.00887   0.00000  -0.00449  -0.00453   2.74789
   R23        2.75160  -0.00169   0.00000  -0.00067  -0.00068   2.75092
   R24        2.02916   0.00898   0.00000   0.00492   0.00492   2.03409
   R25        2.53251   0.02484   0.00000   0.01375   0.01376   2.54627
   R26        2.03973   0.00125   0.00000   0.00069   0.00069   2.04042
   R27        2.66034   0.00551   0.00000   0.00291   0.00294   2.66328
   R28        2.03548   0.00301   0.00000   0.00166   0.00166   2.03714
   R29        2.04409   0.00232   0.00000   0.00129   0.00129   2.04538
   R30        2.62537   0.01234   0.00000   0.00490   0.00486   2.63023
   R31        2.04820  -0.00512   0.00000  -0.00286  -0.00286   2.04535
   R32        2.63191  -0.00326   0.00000  -0.00230  -0.00233   2.62959
   R33        2.05282  -0.00422   0.00000  -0.00236  -0.00236   2.05046
   R34        2.63700  -0.00781   0.00000  -0.00341  -0.00339   2.63361
   R35        2.04981  -0.00504   0.00000  -0.00281  -0.00281   2.04700
   R36        2.81839   0.07518   0.00000   0.04074   0.04050   2.85888
   R37        2.82644   0.04366   0.00000   0.02152   0.02154   2.84798
   R38        2.06970   0.00911   0.00000   0.00516   0.00516   2.07486
   R39        2.06916  -0.01872   0.00000  -0.01061  -0.01061   2.05855
   R40        2.77271  -0.01951   0.00000  -0.01246  -0.01236   2.76036
   R41        2.68809   0.01585   0.00000   0.00834   0.00824   2.69633
   R42        2.52582   0.04320   0.00000   0.02146   0.02148   2.54731
   R43        2.03664   0.00350   0.00000   0.00193   0.00193   2.03857
   R44        2.73707  -0.02822   0.00000  -0.01630  -0.01624   2.72083
   R45        2.04101   0.00261   0.00000   0.00145   0.00145   2.04245
   R46        2.53264   0.04880   0.00000   0.02593   0.02594   2.55859
   R47        2.04105   0.00289   0.00000   0.00160   0.00160   2.04265
   R48        2.03163   0.00640   0.00000   0.00352   0.00352   2.03515
    A1        1.57080  -0.02589   0.00000  -0.02253  -0.02257   1.54823
    A2        1.92895   0.01388   0.00000   0.01022   0.01019   1.93914
    A3        1.34522   0.00669   0.00000   0.00816   0.00816   1.35339
    A4        1.04928   0.00407   0.00000   0.00567   0.00573   1.05501
    A5        1.41836  -0.00041   0.00000   0.00002   0.00004   1.41841
    A6        1.94019   0.00303   0.00000   0.00277   0.00272   1.94291
    A7        1.84478   0.00823   0.00000   0.00487   0.00485   1.84963
    A8        2.01222   0.01142   0.00000   0.00850   0.00847   2.02069
    A9        1.56912   0.00856   0.00000   0.00806   0.00811   1.57723
   A10        1.07971   0.01440   0.00000   0.01207   0.01209   1.09180
   A11        1.20143   0.01464   0.00000   0.01091   0.01092   1.21236
   A12        1.47429   0.01734   0.00000   0.01492   0.01518   1.48947
   A13        2.33974  -0.02269   0.00000  -0.01482  -0.01498   2.32476
   A14        2.49801  -0.03352   0.00000  -0.02504  -0.02506   2.47295
   A15        1.89567  -0.02665   0.00000  -0.01964  -0.01969   1.87598
   A16        1.53371  -0.02653   0.00000  -0.01874  -0.01876   1.51495
   A17        1.73523  -0.02187   0.00000  -0.01511  -0.01513   1.72010
   A18        1.49400   0.03043   0.00000   0.02338   0.02345   1.51745
   A19        2.07157   0.02386   0.00000   0.01943   0.01939   2.09097
   A20        2.42848   0.02802   0.00000   0.01920   0.01910   2.44759
   A21        2.04228   0.02069   0.00000   0.01206   0.01209   2.05437
   A22        1.51161   0.02100   0.00000   0.01532   0.01554   1.52716
   A23        1.27770  -0.00018   0.00000   0.00122   0.00118   1.27889
   A24        1.86863   0.00709   0.00000   0.00336   0.00329   1.87192
   A25        2.11480   0.01117   0.00000   0.00663   0.00649   2.12129
   A26        1.70772   0.01258   0.00000   0.00953   0.00943   1.71714
   A27        1.20910   0.01005   0.00000   0.00763   0.00755   1.21666
   A28        1.30162  -0.02110   0.00000  -0.01494  -0.01482   1.28680
   A29        1.19139  -0.01771   0.00000  -0.01282  -0.01277   1.17862
   A30        1.65276  -0.01029   0.00000  -0.00876  -0.00876   1.64400
   A31        2.11951  -0.02046   0.00000  -0.01653  -0.01643   2.10308
   A32        1.94340  -0.02698   0.00000  -0.02053  -0.02042   1.92299
   A33        0.98474   0.00082   0.00000  -0.00227  -0.00225   0.98249
   A34        0.99960  -0.00376   0.00000  -0.00387  -0.00386   0.99574
   A35        2.16583  -0.00565   0.00000  -0.00362  -0.00364   2.16220
   A36        1.56782   0.00464   0.00000   0.00301   0.00305   1.57088
   A37        1.45560   0.00380   0.00000   0.00330   0.00332   1.45892
   A38        1.90038   0.00115   0.00000   0.00206   0.00205   1.90243
   A39        2.42121   0.00195   0.00000   0.00010   0.00000   2.42121
   A40        0.98330  -0.00478   0.00000  -0.00471  -0.00470   0.97860
   A41        0.97473   0.00194   0.00000  -0.00007  -0.00007   0.97466
   A42        2.28662   0.00305   0.00000   0.00162   0.00159   2.28820
   A43        1.70934   0.00972   0.00000   0.00570   0.00575   1.71509
   A44        1.32725   0.00146   0.00000   0.00275   0.00278   1.33003
   A45        1.52282  -0.00040   0.00000   0.00339   0.00338   1.52621
   A46        2.07692   0.00678   0.00000   0.00591   0.00588   2.08280
   A47        0.91158   0.00251   0.00000   0.00014   0.00013   0.91170
   A48        2.77324   0.00302   0.00000   0.00197   0.00188   2.77512
   A49        2.31481   0.00301   0.00000   0.00037   0.00045   2.31526
   A50        1.85995  -0.00493   0.00000  -0.00233  -0.00226   1.85769
   A51        1.80229   0.00073   0.00000   0.00376   0.00375   1.80604
   A52        2.20101   0.01247   0.00000   0.01096   0.01091   2.21192
   A53        2.56697   0.00084   0.00000  -0.00088  -0.00083   2.56614
   A54        2.31031  -0.00338   0.00000  -0.00199  -0.00195   2.30836
   A55        2.33476   0.00288   0.00000   0.00390   0.00386   2.33862
   A56        2.61045   0.01580   0.00000   0.01254   0.01250   2.62295
   A57        2.49126  -0.00980   0.00000  -0.00654  -0.00651   2.48476
   A58        2.06069   0.00080   0.00000   0.00015   0.00019   2.06088
   A59        2.06847   0.00078   0.00000   0.00128   0.00130   2.06977
   A60        2.48133  -0.00087   0.00000   0.00161   0.00157   2.48290
   A61        0.96514   0.00251   0.00000  -0.00037  -0.00041   0.96473
   A62        0.97291   0.00291   0.00000  -0.00114  -0.00116   0.97175
   A63        0.93268  -0.00334   0.00000  -0.00380  -0.00377   0.92891
   A64        1.01173  -0.01238   0.00000  -0.00971  -0.00973   1.00200
   A65        0.97072  -0.00448   0.00000  -0.00492  -0.00489   0.96583
   A66        2.27899  -0.02578   0.00000  -0.01603  -0.01616   2.26283
   A67        2.05383  -0.01366   0.00000  -0.00479  -0.00464   2.04919
   A68        1.91481   0.03649   0.00000   0.01862   0.01855   1.93336
   A69        1.93809   0.00111   0.00000   0.00120   0.00132   1.93941
   A70        2.20777  -0.01588   0.00000  -0.00872  -0.00876   2.19901
   A71        2.13706   0.01489   0.00000   0.00760   0.00752   2.14458
   A72        1.78395   0.03826   0.00000   0.02429   0.02430   1.80826
   A73        1.94497  -0.01160   0.00000  -0.00833  -0.00833   1.93664
   A74        1.93268  -0.01362   0.00000  -0.00752  -0.00757   1.92511
   A75        1.97048  -0.01486   0.00000  -0.00823  -0.00818   1.96231
   A76        1.93925  -0.00268   0.00000  -0.00172  -0.00174   1.93751
   A77        1.89173   0.00484   0.00000   0.00185   0.00179   1.89352
   A78        1.90240  -0.00599   0.00000  -0.00502  -0.00505   1.89735
   A79        2.47205   0.00242   0.00000   0.00009   0.00007   2.47212
   A80        1.95136   0.00092   0.00000   0.00062   0.00062   1.95198
   A81        1.85544  -0.00349   0.00000  -0.00076  -0.00075   1.85469
   A82        1.96981   0.00633   0.00000   0.00502   0.00500   1.97481
   A83        1.87528  -0.00034   0.00000   0.00014   0.00014   1.87542
   A84        2.24041   0.00287   0.00000   0.00147   0.00151   2.24192
   A85        2.16736  -0.00248   0.00000  -0.00153  -0.00158   2.16578
   A86        2.11130   0.01445   0.00000   0.01139   0.01137   2.12267
   A87        1.93896  -0.00791   0.00000  -0.00540  -0.00539   1.93357
   A88        2.15154   0.00140   0.00000   0.00143   0.00140   2.15294
   A89        2.19174   0.00667   0.00000   0.00408   0.00411   2.19585
   A90        2.21797   0.00009   0.00000  -0.00035  -0.00033   2.21764
   A91        1.83723   0.00793   0.00000   0.00536   0.00538   1.84260
   A92        2.23008  -0.00577   0.00000  -0.00328  -0.00331   2.22677
   A93        2.21286  -0.00241   0.00000  -0.00234  -0.00233   2.21053
   A94        2.31615  -0.00749   0.00000  -0.00675  -0.00674   2.30941
   A95        1.91272   0.00374   0.00000   0.00061   0.00058   1.91330
   A96        2.20681  -0.00452   0.00000  -0.00197  -0.00196   2.20486
   A97        2.14862   0.00075   0.00000   0.00106   0.00108   2.14970
   A98        2.05323   0.00669   0.00000   0.00457   0.00454   2.05776
   A99        2.11609  -0.00575   0.00000  -0.00407  -0.00406   2.11204
   A100       2.11380  -0.00093   0.00000  -0.00049  -0.00047   2.11334
   A101       2.08009  -0.00110   0.00000  -0.00126  -0.00130   2.07879
   A102       2.09774   0.00096   0.00000   0.00086   0.00088   2.09863
   A103       2.09964   0.00002   0.00000   0.00023   0.00025   2.09989
   A104       2.06433   0.00262   0.00000   0.00337   0.00338   2.06771
   A105       2.09652   0.00129   0.00000   0.00016   0.00015   2.09668
[...]
 ! D201  D(18,17,21,20)         -1.9532         -DE/DX =    0.0                 !
 ! D202  D(18,17,21,36)       -175.6944         -DE/DX =    0.0                 !
 ! D203  D(17,18,19,20)          0.0255         -DE/DX =    0.0                 !
 ! D204  D(17,18,19,34)        171.394          -DE/DX =    0.0                 !
 ! D205  D(33,18,19,20)       -171.0318         -DE/DX =    0.0                 !
 ! D206  D(33,18,19,34)          0.3367         -DE/DX =    0.0                 !
 ! D207  D(18,19,20,21)         -1.2418         -DE/DX =    0.0                 !
 ! D208  D(18,19,20,35)        174.767          -DE/DX =    0.0                 !
 ! D209  D(34,19,20,21)       -172.6482         -DE/DX =    0.0                 !
 ! D210  D(34,19,20,35)          3.3605         -DE/DX =    0.0                 !
 ! D211  D(19,20,21,17)          1.9783         -DE/DX =    0.0                 !
 ! D212  D(19,20,21,36)        175.7286         -DE/DX =    0.0                 !
 ! D213  D(35,20,21,17)       -174.0454         -DE/DX =    0.0                 !
 ! D214  D(35,20,21,36)         -0.2951         -DE/DX =    0.0                 !
 --------------------------------------------------------------------------------
 GradGradGradGradGradGradGradGradGradGradGradGradGradGradGradGradGradGrad

 Largest change from initial coordinates is atom   25       1.397 Angstoms.
 Leave Link  103 at Mon Sep 15 12:54:12 2025, MaxMem=    33554432 cpu:         0.0
 (Enter /appl/g09.shchoi/G09Files/g09/l202.exe)
                          Input orientation:                          
 ---------------------------------------------------------------------
 Center     Atomic      Atomic             Coordinates (Angstroms)
 Number     Number       Type             X           Y           Z
 ---------------------------------------------------------------------
      1         40           0        0.016760    0.226469   -0.225388
      2         17           0        1.128502    0.986525   -2.190328
      3         17           0        2.076545    0.771814    0.810489
      4          7           0       -0.100528   -0.271136    2.245241
      5          6           0       -0.326153    0.729452    3.101148
      6          6           0       -0.850482    2.023697    2.533486
      7          6           0       -1.239469    1.884489    1.090561
      8          6           0       -2.226565    0.999762    0.590579
      9          6           0       -2.310077    1.189844   -0.807546
     10          6           0       -1.384251    2.182854   -1.169677
     11          6           0       -0.698377    2.597300   -0.006140
     12          6           0       -0.066313    0.614280    4.461954
     13          6           0        0.459823   -0.569280    4.948006
     14          6           0        0.722309   -1.592757    4.054990
     15          6           0        0.436079   -1.403715    2.707804
     16          6           0        0.758830   -2.480057    1.703039
     17          6           0        0.206582   -2.160627    0.344471
     18          6           0       -1.164431   -1.970985    0.042060
     19          6           0       -1.270681   -1.715567   -1.344075
     20          6           0        0.021690   -1.747323   -1.894642
     21          6           0        0.943325   -1.993705   -0.852591
     22          1           0       -1.703379    2.357609    3.135995
     23          1           0       -0.061430    2.778126    2.631014
     24          1           0       -2.900294    0.404878    1.195049
     25          1           0       -3.057578    0.760553   -1.461052
     26          1           0       -1.264547    2.608846   -2.156515
     27          1           0        0.032501    3.397426    0.050817
     28          1           0       -0.267345    1.445180    5.119913
     29          1           0        0.671882   -0.687465    5.999867
     30          1           0        1.151255   -2.524918    4.387854
     31          1           0        0.366765   -3.436888    2.067328
     32          1           0        1.849595   -2.570364    1.645228
     33          1           0       -1.987719   -2.148320    0.723187
     34          1           0       -2.191853   -1.658325   -1.908247
     35          1           0        0.265653   -1.667645   -2.945250
     36          1           0        2.012314   -2.139268   -0.969607
 ---------------------------------------------------------------------
                    Distance matrix (angstroms):
                    1          2          3          4          5
     1  Zr   0.000000
     2  Cl   2.382151   0.000000
     3  Cl   2.369210   3.154329   0.000000
     4  N    2.522969   4.771425   2.808185   0.000000
     5  C    3.381778   5.493799   3.319920   1.335911   0.000000
     6  C    3.404926   5.225565   3.619864   2.431413   1.507391
     7  C    2.461476   4.144618   3.508908   2.697627   2.492131
     8  C    2.509241   4.357763   4.314751   2.978778   3.160314
     9  C    2.584796   3.711772   4.694171   4.041791   4.407471
    10  C    2.584948   2.964265   4.229563   4.396780   4.633777
    11  C    2.486026   3.271507   3.420449   3.695140   3.644536
    12  C    4.704091   6.768974   4.236726   2.387247   1.390171
    13  C    5.252954   7.336449   4.640190   2.776297   2.390679
    14  C    4.704149   6.769172   4.236972   2.387244   2.720614
    15  C    3.381855   5.494032   3.320219   1.335907   2.299156
    16  C    3.405112   5.226104   3.620453   2.431422   3.665084
    17  C    2.461504   4.144841   3.509009   2.697669   4.029346
    18  C    2.509092   4.357518   4.314783   2.979158   4.165703
    19  C    2.584660   3.711270   4.693947   4.042132   5.160451
    20  C    2.585012   2.964184   4.229210   4.396896   5.586888
    21  C    2.486178   3.271942   3.420251   3.695055   4.965804
    22  H    4.335842   6.186206   4.712807   3.205132   2.132805
    23  H    3.830940   5.279310   3.451165   3.073817   2.118530
    24  H    3.249411   5.294364   5.005143   3.065711   3.219435
    25  H    3.356138   4.255135   5.614200   4.852333   5.317454
    26  H    3.323660   2.891324   4.831221   5.387456   5.661777
    27  H    3.183003   3.469351   3.413072   4.276861   4.068321
    28  H    5.489829   7.456432   4.951603   3.352210   2.142694
    29  H    6.326000   8.371980   5.570657   3.855797   3.377322
    30  H    5.489919   7.456757   4.951983   3.352207   3.798588
    31  H    4.335809   6.186636   4.713402   3.204997   4.348254
    32  H    3.831548   5.280428   3.452310   3.073995   4.212169
    33  H    3.249208   5.294021   5.005301   3.066261   4.086205
    34  H    3.355954   4.254357   5.613940   4.852771   5.854600
    35  H    3.323743   2.891199   4.830722   5.387534   6.531098
    36  H    3.183207   3.470138   3.412809   4.276595   5.501729
                    6          7          8          9         10
     6  C    0.000000
     7  C    1.500908   0.000000
     8  C    2.591705   1.416715   0.000000
     9  C    3.740084   2.287257   1.413457   0.000000
    10  C    3.744818   2.284438   2.282039   1.405119   0.000000
    11  C    2.608037   1.415497   2.289882   2.284898   1.412801
    12  C    2.514033   3.788934   4.450037   5.756161   5.992716
    13  C    3.777609   4.877341   5.354040   6.625198   6.957075
    14  C    4.226982   4.972691   5.236330   6.370439   6.781591
    15  C    3.665075   4.029296   4.165215   5.160001   5.586764
    16  C    4.854207   4.839173   4.717975   5.402722   5.881159
    17  C    4.839188   4.360124   3.996102   4.345846   4.867158
    18  C    4.718395   3.996206   3.202240   3.467734   4.332552
    19  C    5.403161   4.346128   3.468373   3.132032   3.903973
    20  C    5.881292   4.867445   4.333296   3.904596   4.236572
    21  C    5.551826   4.856008   4.592579   4.552103   4.791847
    22  H    1.096334   2.150083   2.931998   4.157316   4.321017
    23  H    1.096028   2.135266   3.466088   4.404855   4.068102
    24  H    2.934914   2.226771   1.083135   2.230452   3.324382
    25  H    4.735308   3.328585   2.226431   1.081720   2.215369
    26  H    4.744466   3.326984   3.325832   2.219553   1.081503
    27  H    2.971605   2.233372   3.338190   3.331347   2.229793
    28  H    2.713731   4.168177   4.954978   6.274769   6.430442
    29  H    4.656585   5.862551   6.364600   7.665328   7.991795
    30  H    5.304293   6.002548   6.184847   7.264466   7.712202
    31  H    5.613999   5.643680   5.346963   6.069353   6.717571
    32  H    5.402296   5.449375   5.520250   6.120305   6.401135
    33  H    4.687880   4.118057   3.159913   3.686516   4.765100
    34  H    5.923306   4.738292   3.648392   3.055746   3.994041
    35  H    6.699874   5.583083   5.082155   4.401069   4.549856
    36  H    6.147970   5.568573   5.500526   5.458234   5.500675
                   11         12         13         14         15
    11  C    0.000000
    12  C    4.929070   0.000000
    13  C    5.992680   1.383430   0.000000
    14  C    6.005638   2.378772   1.383431   0.000000
    15  C    4.965944   2.720615   2.390681   1.390171   0.000000
    16  C    5.551963   4.226984   3.777603   2.514022   1.507392
    17  C    4.855898   4.972751   4.877402   3.788984   2.492173
    18  C    4.592249   5.236881   5.354557   4.450444   3.160635
    19  C    4.551749   6.370923   6.625625   5.756474   4.407721
    20  C    4.791731   6.781683   6.957124   5.992735   4.633820
    21  C    4.948635   6.005442   5.992469   4.928890   3.644420
    22  H    3.307642   2.734474   4.065649   4.725875   4.348354
    23  H    2.719003   2.834536   4.104301   4.663322   4.212032
    24  H    3.331367   4.329892   5.130697   5.029220   4.085440
    25  H    3.325092   6.637098   7.430787   7.088888   5.853978
    26  H    2.223689   7.015567   7.971710   7.757825   6.531032
    27  H    1.085186   5.216684   6.316630   6.435150   5.502128
    28  H    5.271583   1.078758   2.148574   3.367868   3.798589
    29  H    6.981362   2.145845   1.079513   2.145843   3.377322
    30  H    6.997530   3.367867   2.148574   1.078758   2.142695
    31  H    6.468788   4.725860   4.065728   2.734599   2.132793
    32  H    5.993656   4.663325   4.104162   2.834333   2.118528
    33  H    4.971441   5.030123   5.131562   4.330567   3.219928
    34  H    4.894775   7.089577   7.431393   6.637532   5.317779
    35  H    5.268536   7.757838   7.971675   7.015519   5.661777
    36  H    5.541767   6.434638   6.316110   5.216260   4.068035
                   16         17         18         19         20
    16  C    0.000000
    17  C    1.500907   0.000000
    18  C    2.591706   1.416719   0.000000
    19  C    3.740089   2.287263   1.413471   0.000000
    20  C    3.744808   2.284432   2.282043   1.405118   0.000000
    21  C    2.608030   1.415489   2.289880   2.284894   1.412793
    22  H    5.614164   5.644024   5.347861   6.070339   6.718157
    23  H    5.402079   5.448981   5.520267   6.120204   6.400638
    24  H    4.687226   4.118006   3.160273   3.687693   4.766146
    25  H    5.922668   4.737926   3.647554   3.055790   3.994914
    26  H    6.699787   5.582744   5.081202   4.400074   4.549637
    27  H    6.148350   5.568527   5.500233   5.457720   5.500307
    28  H    5.304295   6.002608   6.185429   7.264995   7.712302
    29  H    4.656573   5.862612   6.365134   7.665771   7.991829
    30  H    2.713713   4.168221   4.955317   6.275017   6.430422
    31  H    1.096333   2.150055   2.931748   4.157144   4.320985
    32  H    1.096023   2.135262   3.466086   4.404853   4.068084
    33  H    2.934909   2.226776   1.083136   2.230469   3.324387
    34  H    4.735310   3.328593   2.226443   1.081722   2.215373
    35  H    4.744453   3.326979   3.325835   2.219545   1.081501
    36  H    2.971599   2.233367   3.338188   3.331337   2.229774
                   21         22         23         24         25
    21  C    0.000000
    22  H    6.468987   0.000000
    23  H    5.992947   1.768569   0.000000
    24  H    4.971864   3.002172   3.969062   0.000000
    25  H    4.895241   5.051464   5.458251   2.684421   0.000000
    26  H    5.268624   5.316611   4.939289   4.331989   2.667361
    27  H    5.541664   3.689556   2.655140   4.343489   4.334447
    28  H    6.997318   2.613551   2.830860   4.839340   7.180754
    29  H    6.981127   4.807921   4.888481   6.086044   8.465870
    30  H    5.271402   5.792681   5.716587   5.932349   7.919489
    31  H    3.307737   6.245297   6.255198   5.117980   6.464836
    32  H    2.718999   6.255471   5.764559   5.622826   6.695097
    33  H    3.331366   5.119168   5.623190   2.752139   3.791707
    34  H    3.325091   6.466120   6.695199   3.793302   2.607764
    35  H    2.223686   7.553893   7.139089   5.608979   4.375254
    36  H    1.085182   7.133319   6.437830   5.940718   5.861253
                   26         27         28         29         30
    26  H    0.000000
    27  H    2.678900   0.000000
    28  H    7.436056   5.440304   0.000000
    29  H    9.007885   7.244746   2.490912   0.000000
    30  H    8.661432   7.425339   4.279020   2.490907   0.000000
    31  H    7.553339   7.133436   5.792665   4.808044   2.613801
    32  H    7.139702   6.438827   5.716595   4.888272   2.830502
    33  H    5.607700   5.940427   5.933307   6.086948   4.839914
    34  H    4.373818   5.860571   7.920259   8.466511   7.181103
    35  H    4.609989   5.889459   8.661445   9.007825   7.435969
    36  H    5.889920   5.967906   7.424781   7.244175   5.439903
                   31         32         33         34         35
    31  H    0.000000
    32  H    1.768564   0.000000
    33  H    3.001786   3.969037   0.000000
    34  H    5.051238   5.458232   2.684438   0.000000
    35  H    5.316614   4.939257   4.331993   2.667358   0.000000
    36  H    3.689800   2.655124   4.343489   4.334440   2.678884
                   36
    36  H    0.000000
 Stoichiometry    C17H15Cl2NZr
 Framework group  C1[X(C17H15Cl2NZr)]
 Deg. of freedom   102
 Full point group                 C1      NOp   1
 RotChk:  IX=1 Diff= 1.56D-15
 Largest Abelian subgroup         C1      NOp   1
 Largest concise Abelian subgroup C1      NOp   1
                         Standard orientation:                         
 ---------------------------------------------------------------------
 Center     Atomic      Atomic             Coordinates (Angstroms)
 Number     Number       Type             X           Y           Z
 ---------------------------------------------------------------------
      1         40           0       -0.830827    0.000024   -0.089201
      2         17           0       -2.797420    0.000276   -1.433507
      3         17           0        0.264901    0.000095   -2.189805
      4          7           0        1.670395   -0.000017    0.241344
      5          6           0        2.341943    1.149558    0.131078
      6          6           0        1.542892    2.427071    0.172385
      7          6           0        0.112905    2.180044    0.555583
      8          6           0       -0.319698    1.601048    1.774065
      9          6           0       -1.732638    1.565879    1.759043
     10          6           0       -2.170662    2.118151    0.543522
     11          6           0       -1.035307    2.474269   -0.218157
     12          6           0        3.720225    1.189362   -0.045925
     13          6           0        4.421982   -0.000024   -0.128243
     14          6           0        3.720257   -1.189409   -0.045622
     15          6           0        2.341973   -1.149598    0.131364
     16          6           0        1.542976   -2.427135    0.172980
     17          6           0        0.112821   -2.180080    0.555528
     18          6           0       -0.320328   -1.601192    1.773872
     19          6           0       -1.733278   -1.566152    1.758268
     20          6           0       -2.170742   -2.118421    0.542546
     21          6           0       -1.035044   -2.474366   -0.218688
     22          1           0        2.018983    3.122806    0.873268
     23          1           0        1.583810    2.882004   -0.823928
     24          1           0        0.315226    1.375999    2.622243
     25          1           0       -2.368075    1.303690    2.594264
     26          1           0       -3.199081    2.304824    0.265751
     27          1           0       -1.045890    2.983949   -1.176145
     28          1           0        4.224823    2.139484   -0.125730
     29          1           0        5.492710   -0.000029   -0.265688
     30          1           0        4.224883   -2.139536   -0.125185
     31          1           0        2.018844   -3.122491    0.874391
     32          1           0        1.584315   -2.882555   -0.823087
     33          1           0        0.314231   -1.376139    2.622324
     34          1           0       -2.369082   -1.304073    2.593248
     35          1           0       -3.199029   -2.305164    0.264342
     36          1           0       -1.045199   -2.983957   -1.176725
 ---------------------------------------------------------------------
 Rotational constants (GHZ):      0.4148470      0.2659440      0.2258792
 Leave Link  202 at Mon Sep 15 12:54:12 2025, MaxMem=    33554432 cpu:         0.0
 (Enter /appl/g09.shchoi/G09Files/g09/l601.exe)
 Leave Link  601 at Mon Sep 15 12:54:12 2025, MaxMem=    33554432 cpu:         0.0
 (Enter /appl/g09.shchoi/G09Files/g09/l9999.exe)
 1\1\GINC-MASTER\FOpt\RExternal='/home/rxn_grp/programs/xtb-gaussian'\Z
 DO\C17H15Cl2N1Zr1\RXN_GRP\15-Sep-2025\0\\#p external='/home/rxn_grp/pr
 ograms/xtb-gaussian' /sdd opt(nomicro)\\R\\0,1\Zr,0.0167596303,0.22646
 89645,-0.2253882923\Cl,1.1285020482,0.9865246038,-2.190328291\Cl,2.076
 5448318,0.7718135318,0.8104893073\N,-0.1005282496,-0.2711355936,2.2452
 405547\C,-0.326153018,0.7294519272,3.1011475122\C,-0.8504816012,2.0236
 966331,2.5334863791\C,-1.2394690194,1.8844891041,1.0905605923\C,-2.226
 5650251,0.9997617752,0.5905792645\C,-2.3100769304,1.1898444495,-0.8075
 464691\C,-1.3842514895,2.1828541284,-1.1696767716\C,-0.6983765855,2.59
 72995218,-0.0061398395\C,-0.0663125117,0.6142801819,4.4619537376\C,0.4
 598227237,-0.5692797208,4.9480061167\C,0.7223089873,-1.5927566228,4.05
 49899182\C,0.4360792238,-1.403715186,2.7078035701\C,0.7588296158,-2.48
 00570974,1.7030394923\C,0.2065816512,-2.160627259,0.3444708681\C,-1.16
 44309171,-1.9709850109,0.0420602317\C,-1.2706813665,-1.7155671512,-1.3
 440752306\C,0.0216899595,-1.7473234416,-1.8946418308\C,0.9433245859,-1
 .9937052228,-0.8525908217\H,-1.7033788223,2.357608552,3.1359949909\H,-
 0.061430265,2.7781263157,2.6310139221\H,-2.900294193,0.4048777849,1.19
 50490632\H,-3.0575778171,0.7605531257,-1.4610523653\H,-1.2645467578,2.
 6088464624,-2.1565148353\H,0.032500607,3.3974261209,0.0508171117\H,-0.
 267344845,1.4451798527,5.1199131636\H,0.6718816656,-0.6874652701,5.999
 8674926\H,1.1512553622,-2.524918013,4.3878539563\H,0.366765046,-3.4368
 884826,2.0673279577\H,1.8495948012,-2.5703637217,1.6452277348\H,-1.987
 7190009,-2.1483201239,0.7231868375\H,-2.1918529189,-1.6583249304,-1.90
 82466484\H,0.2656525281,-1.6676452405,-2.9452503891\H,2.0123139831,-2.
 1392677136,-0.9696074429\\Version=ES64L-G09RevD.01\HF=-57.9163336\RMSD
 =0.000e+00\RMSF=1.664e-06\Dipole=-1.8526952,-1.1593376,2.6948184\PG=C0
 1 [X(C17H15Cl2N1Zr1)]\\@


 THE 2ND LAW OF THERMODYNAMICS HAS THE SAME
 DEGREE OF TRUTH AS THE STATEMENT THAT IF YOU THROW
 A TUMBLERFULL OF WATER INTO THE SEA, YOU CANNOT GET
 THE SAME TUMBLERFULL OF WATER OUT AGAIN.
          - J.C. MAXWELL, LETTER TO LORD RAYLEIGH, DECEMBER 6,1870
 Job cpu time:       0 days  0 hours  0 minutes  4.4 seconds.
 File lengths (MBytes):  RWF=     10 Int=      0 D2E=      0 Chk=      4 Scr=      1
 Normal termination of Gaussian 09 at Mon Sep 15 12:54:12 2025.
