 Entering Gaussian System, Link 0=g09
 Input=final_relax_6.com
 Output=final_relax_6.log
 Initial command:
 /appl/g09.shchoi/G09Files/g09/l1.exe "/home/rxn_grp/scratch/Gau-2488805.inp" -scrdir="/home/rxn_grp/scratch/"
 Entering Link 1 = /appl/g09.shchoi/G09Files/g09/l1.exe PID=   2488808.
  
 Copyright (c) 1988,1990,1992,1993,1995,1998,2003,2009,2013,
            Gaussian, Inc.  All Rights Reserved.
  
 This is part of the Gaussian(R) 09 program.  It is based on
 the Gaussian(R) 03 system (copyright 2003, Gaussian, Inc.),
 the Gaussian(R) 98 system (copyright 1998, Gaussian, Inc.),
 the Gaussian(R) 94 system (copyright 1995, Gaussian, Inc.),
 the Gaussian 92(TM) system (copyright 1992, Gaussian, Inc.),
 the Gaussian 90(TM) system (copyright 1990, Gaussian, Inc.),
 the Gaussian 88(TM) system (copyright 1988, Gaussian, Inc.),
 the Gaussian 86(TM) system (copyright 1986, Carnegie Mellon
 University), and the Gaussian 82(TM) system (copyright 1983,
 Carnegie Mellon University). Gaussian is a federally registered
 trademark of Gaussian, Inc.
  
 This software contains proprietary and confidential information,
 including trade secrets, belonging to Gaussian, Inc.
  
 This software is provided under written license and may be
 used, copied, transmitted, or stored only in accord with that
 written license.
  
 The following legend is applicable only to US Government
 contracts under FAR:
  
                    RESTRICTED RIGHTS LEGEND
  
 Use, reproduction and disclosure by the US Government is
 subject to restrictions as set forth in subparagraphs (a)
 and (c) of the Commercial Computer Software - Restricted
 Rights clause in FAR 52.227-19.
  
 Gaussian, Inc.
 340 Quinnipiac St., Bldg. 40, Wallingford CT 06492
  
  
 ---------------------------------------------------------------
 Warning -- This program may not be used in any manner that
 competes with the business of Gaussian, Inc. or will provide
 assistance to any competitor of Gaussian, Inc.  The licensee
 of this program is prohibited from giving any competitor of
 Gaussian, Inc. access to this program.  By using this program,
 the user acknowledges that Gaussian, Inc. is engaged in the
 business of creating and licensing software in the field of
 computational chemistry and represents and warrants to the
 licensee that it is not a competitor of Gaussian, Inc. and that
 it will not use this program in any manner prohibited above.
 ---------------------------------------------------------------
  

 Cite this work as:
 Gaussian 09, Revision D.01,
 M. J. Frisch, G. W. Trucks, H. B. Schlegel, G. E. Scuseria, 
 M. A. Robb, J. R. Cheeseman, G. Scalmani, V. Barone, B. Mennucci, 
 G. A. Petersson, H. Nakatsuji, M. Caricato, X. Li, H. P. Hratchian, 
 A. F. Izmaylov, J. Bloino, G. Zheng, J. L. Sonnenberg, M. Hada, 
 M. Ehara, K. Toyota, R. Fukuda, J. Hasegawa, M. Ishida, T. Nakajima, 
 Y. Honda, O. Kitao, H. Nakai, T. Vreven, J. A. Montgomery, Jr., 
 J. E. Peralta, F. Ogliaro, M. Bearpark, J. J. Heyd, E. Brothers, 
 K. N. Kudin, V. N. Staroverov, T. Keith, R. Kobayashi, J. Normand, 
 K. Raghavachari, A. Rendell, J. C. Burant, S. S. Iyengar, J. Tomasi, 
 M. Cossi, N. Rega, J. M. Millam, M. Klene, J. E. Knox, J. B. Cross, 
 V. Bakken, C. Adamo, J. Jaramillo, R. Gomperts, R. E. Stratmann, 
 O. Yazyev, A. J. Austin, R. Cammi, C. Pomelli, J. W. Ochterski, 
 R. L. Martin, K. Morokuma, V. G. Zakrzewski, G. A. Voth, 
 P. Salvador, J. J. Dannenberg, S. Dapprich, A. D. Daniels, 
 O. Farkas, J. B. Foresman, J. V. Ortiz, J. Cioslowski, 
 and D. J. Fox, Gaussian, Inc., Wallingford CT, 2013.
 
 ******************************************
 Gaussian 09:  ES64L-G09RevD.01 24-Apr-2013
                15-Sep-2025 
 ******************************************
 -------------------------------------------------------------------
 #p external='/home/rxn_grp/programs/xtb-gaussian' /sdd opt(nomicro)
 -------------------------------------------------------------------
 1/14=-1,18=20,19=15,26=1,38=1/1,3;
 2/9=110,12=2,17=6,18=5,40=1/2;
 3/5=17,6=7,11=9,16=1,25=1,30=1,41=9900000,43=2,71=1/1;
 4/20=17,22=1,24=3,113=1,114=1/2;
 6/7=2,8=2,9=2,10=2/1;
 7/44=-1/16;
 1/14=-1,18=20,19=15,26=1/3(2);
 2/9=110/2;
 99//99;
 2/9=110/2;
 3/5=17,6=7,11=9,16=1,25=1,30=1,41=9900000,43=2,71=1/1;
 4/16=2,20=17,22=1,24=3,113=1,114=1/2;
 7/44=-1/16;
 1/14=-1,18=20,19=15,26=1/3(-4);
 2/9=110/2;
 6/7=2,8=2,9=2,10=2/1;
 99//99;
 Leave Link    1 at Mon Sep 15 12:51:58 2025, MaxMem=           0 cpu:         0.0
 (Enter /appl/g09.shchoi/G09Files/g09/l101.exe)
 -
 R
 -
 Symbolic Z-matrix:
 Charge =  0 Multiplicity = 1
 Zr                    0.        0.        0. 
 Cl                    0.        0.       -2.77 
 Cl                    2.77      0.        0. 
 N                     0.00169   0.03301   2.45978 
 C                     1.07773   0.86487   2.46815 
 C                     0.96475   2.32471   1.98479 
 C                     0.01713   2.72029   0.8467 
 C                     0.28865   3.29843  -0.39284 
 C                    -0.96935   3.09156  -1.17436 
 C                    -1.9486    2.64641  -0.33288 
 C                    -1.44507   2.74648   1.03149 
 C                     2.29708   0.42363   2.98274 
 C                     2.42972  -0.90568   3.38333 
 C                     1.35299  -1.7761    3.24113 
 C                     0.15212  -1.27308   2.75489 
 C                    -1.00205  -2.17146   2.36281 
 C                    -0.97093  -2.50639   0.89987 
 C                     0.18853  -3.37669   0.339 
 C                     0.02767  -3.27522  -1.01013 
 C                    -1.35644  -2.79802  -1.26522 
 C                    -2.00278  -2.48576  -0.10589 
 H                     0.70592   2.93151   2.861 
 H                     1.97199   2.63904   1.67794 
 H                     1.27687   3.41913  -0.82146 
 H                    -0.99539   3.04037  -2.25301 
 H                    -2.90267   2.21237  -0.60727 
 H                    -1.90605   2.18523   1.85579 
 H                     3.14621   1.09555   3.05967 
 H                     3.3813   -1.26865   3.76299 
 H                     1.46965  -2.83071   3.46676 
 H                    -0.95777  -3.10241   2.94128 
 H                    -1.94308  -1.67936   2.63458 
 H                     1.08341  -3.63406   0.88161 
 H                     0.73907  -3.5258   -1.77713 
 H                    -1.77779  -2.72449  -2.25417 
 H                    -2.99534  -2.07807   0.00899 
 
 Add atom      1 valence  3 ND=      2 dihedral       2      1      3      4
 NAtoms=     36 NQM=       36 NQMF=       0 NMMI=      0 NMMIF=      0
                NMic=       0 NMicF=      0.
                    Isotopes and Nuclear Properties:
 (Nuclear quadrupole moments (NQMom) in fm**2, nuclear magnetic moments (NMagM)
  in nuclear magnetons)

  Atom         1           2           3           4           5           6           7           8           9          10
 IAtWgt=          90          35          35          14          12          12          12          12          12          12
 AtmWgt=  89.9043000  34.9688527  34.9688527  14.0030740  12.0000000  12.0000000  12.0000000  12.0000000  12.0000000  12.0000000
 NucSpn=           0           3           3           2           0           0           0           0           0           0
 AtZEff=   0.0000000   0.0000000   0.0000000   0.0000000   0.0000000   0.0000000   0.0000000   0.0000000   0.0000000   0.0000000
 NQMom=    0.0000000  -8.1650000  -8.1650000   2.0440000   0.0000000   0.0000000   0.0000000   0.0000000   0.0000000   0.0000000
 NMagM=    0.0000000   0.8218740   0.8218740   0.4037610   0.0000000   0.0000000   0.0000000   0.0000000   0.0000000   0.0000000
 AtZNuc=  40.0000000  17.0000000  17.0000000   7.0000000   6.0000000   6.0000000   6.0000000   6.0000000   6.0000000   6.0000000

  Atom        11          12          13          14          15          16          17          18          19          20
 IAtWgt=          12          12          12          12          12          12          12          12          12          12
 AtmWgt=  12.0000000  12.0000000  12.0000000  12.0000000  12.0000000  12.0000000  12.0000000  12.0000000  12.0000000  12.0000000
 NucSpn=           0           0           0           0           0           0           0           0           0           0
 AtZEff=   0.0000000   0.0000000   0.0000000   0.0000000   0.0000000   0.0000000   0.0000000   0.0000000   0.0000000   0.0000000
 NQMom=    0.0000000   0.0000000   0.0000000   0.0000000   0.0000000   0.0000000   0.0000000   0.0000000   0.0000000   0.0000000
 NMagM=    0.0000000   0.0000000   0.0000000   0.0000000   0.0000000   0.0000000   0.0000000   0.0000000   0.0000000   0.0000000
 AtZNuc=   6.0000000   6.0000000   6.0000000   6.0000000   6.0000000   6.0000000   6.0000000   6.0000000   6.0000000   6.0000000

  Atom        21          22          23          24          25          26          27          28          29          30
 IAtWgt=          12           1           1           1           1           1           1           1           1           1
 AtmWgt=  12.0000000   1.0078250   1.0078250   1.0078250   1.0078250   1.0078250   1.0078250   1.0078250   1.0078250   1.0078250
 NucSpn=           0           1           1           1           1           1           1           1           1           1
 AtZEff=   0.0000000   0.0000000   0.0000000   0.0000000   0.0000000   0.0000000   0.0000000   0.0000000   0.0000000   0.0000000
 NQMom=    0.0000000   0.0000000   0.0000000   0.0000000   0.0000000   0.0000000   0.0000000   0.0000000   0.0000000   0.0000000
 NMagM=    0.0000000   2.7928460   2.7928460   2.7928460   2.7928460   2.7928460   2.7928460   2.7928460   2.7928460   2.7928460
 AtZNuc=   6.0000000   1.0000000   1.0000000   1.0000000   1.0000000   1.0000000   1.0000000   1.0000000   1.0000000   1.0000000

  Atom        31          32          33          34          35          36
 IAtWgt=           1           1           1           1           1           1
 AtmWgt=   1.0078250   1.0078250   1.0078250   1.0078250   1.0078250   1.0078250
 NucSpn=           1           1           1           1           1           1
 AtZEff=   0.0000000   0.0000000   0.0000000   0.0000000   0.0000000   0.0000000
 NQMom=    0.0000000   0.0000000   0.0000000   0.0000000   0.0000000   0.0000000
 NMagM=    2.7928460   2.7928460   2.7928460   2.7928460   2.7928460   2.7928460
 AtZNuc=   1.0000000   1.0000000   1.0000000   1.0000000   1.0000000   1.0000000
 Leave Link  101 at Mon Sep 15 12:51:58 2025, MaxMem=    33554432 cpu:         0.0
 (Enter /appl/g09.shchoi/G09Files/g09/l103.exe)

 GradGradGradGradGradGradGradGradGradGradGradGradGradGradGradGradGradGrad
 Berny optimization.
 Initialization pass.
                           ----------------------------
                           !    Initial Parameters    !
                           ! (Angstroms and Degrees)  !
 --------------------------                            --------------------------
 ! Name  Definition              Value          Derivative Info.                !
 --------------------------------------------------------------------------------
 ! R1    R(1,2)                  2.77           estimate D2E/DX2                !
 ! R2    R(1,3)                  2.77           estimate D2E/DX2                !
 ! R3    R(1,4)                  2.46           estimate D2E/DX2                !
 ! R4    R(4,5)                  1.3601         estimate D2E/DX2                !
 ! R5    R(4,15)                 1.3474         estimate D2E/DX2                !
 ! R6    R(5,6)                  1.5419         estimate D2E/DX2                !
 ! R7    R(5,12)                 1.3951         estimate D2E/DX2                !
 ! R8    R(6,7)                  1.5329         estimate D2E/DX2                !
 ! R9    R(6,22)                 1.0968         estimate D2E/DX2                !
 ! R10   R(6,23)                 1.0989         estimate D2E/DX2                !
 ! R11   R(7,8)                  1.3944         estimate D2E/DX2                !
 ! R12   R(7,11)                 1.4741         estimate D2E/DX2                !
 ! R13   R(8,9)                  1.4954         estimate D2E/DX2                !
 ! R14   R(8,24)                 1.0839         estimate D2E/DX2                !
 ! R15   R(9,10)                 1.3657         estimate D2E/DX2                !
 ! R16   R(9,25)                 1.0802         estimate D2E/DX2                !
 ! R17   R(10,11)                1.4578         estimate D2E/DX2                !
 ! R18   R(10,26)                1.0835         estimate D2E/DX2                !
 ! R19   R(11,27)                1.0986         estimate D2E/DX2                !
 ! R20   R(12,13)                1.3947         estimate D2E/DX2                !
 ! R21   R(12,28)                1.0855         estimate D2E/DX2                !
 ! R22   R(13,14)                1.3918         estimate D2E/DX2                !
 ! R23   R(13,29)                1.0869         estimate D2E/DX2                !
 ! R24   R(14,15)                1.3898         estimate D2E/DX2                !
 ! R25   R(14,30)                1.0848         estimate D2E/DX2                !
 ! R26   R(15,16)                1.5142         estimate D2E/DX2                !
 ! R27   R(16,17)                1.5011         estimate D2E/DX2                !
 ! R28   R(16,31)                1.0969         estimate D2E/DX2                !
 ! R29   R(16,32)                1.0962         estimate D2E/DX2                !
 ! R30   R(17,18)                1.5545         estimate D2E/DX2                !
 ! R31   R(17,21)                1.4411         estimate D2E/DX2                !
 ! R32   R(18,19)                1.3625         estimate D2E/DX2                !
 ! R33   R(18,33)                1.0777         estimate D2E/DX2                !
 ! R34   R(19,20)                1.4861         estimate D2E/DX2                !
 ! R35   R(19,34)                1.0757         estimate D2E/DX2                !
 ! R36   R(20,21)                1.3636         estimate D2E/DX2                !
 ! R37   R(20,35)                1.0775         estimate D2E/DX2                !
 ! R38   R(21,36)                1.0792         estimate D2E/DX2                !
 ! A1    A(2,1,3)               90.0            estimate D2E/DX2                !
 ! A2    A(3,1,4)               89.9607         estimate D2E/DX2                !
 ! A3    A(1,4,5)               90.8541         estimate D2E/DX2                !
 ! A4    A(1,4,15)             101.8921         estimate D2E/DX2                !
 ! A5    A(5,4,15)             120.2094         estimate D2E/DX2                !
 ! A6    A(4,5,6)              121.2751         estimate D2E/DX2                !
 ! A7    A(4,5,12)             120.0204         estimate D2E/DX2                !
 ! A8    A(6,5,12)             118.6272         estimate D2E/DX2                !
 ! A9    A(5,6,7)              121.4909         estimate D2E/DX2                !
 ! A10   A(5,6,22)             106.8975         estimate D2E/DX2                !
 ! A11   A(5,6,23)             106.9294         estimate D2E/DX2                !
 ! A12   A(7,6,22)             107.7265         estimate D2E/DX2                !
 ! A13   A(7,6,23)             106.5892         estimate D2E/DX2                !
 ! A14   A(22,6,23)            106.3285         estimate D2E/DX2                !
 ! A15   A(6,7,8)              130.2861         estimate D2E/DX2                !
 ! A16   A(6,7,11)             121.6502         estimate D2E/DX2                !
 ! A17   A(8,7,11)             107.2909         estimate D2E/DX2                !
 ! A18   A(7,8,9)              104.0879         estimate D2E/DX2                !
 ! A19   A(7,8,24)             125.1143         estimate D2E/DX2                !
 ! A20   A(9,8,24)             125.1513         estimate D2E/DX2                !
 ! A21   A(8,9,10)             109.0435         estimate D2E/DX2                !
 ! A22   A(8,9,25)             123.2794         estimate D2E/DX2                !
 ! A23   A(10,9,25)            125.6293         estimate D2E/DX2                !
 ! A24   A(9,10,11)            107.8559         estimate D2E/DX2                !
 ! A25   A(9,10,26)            127.295          estimate D2E/DX2                !
 ! A26   A(11,10,26)           124.6585         estimate D2E/DX2                !
 ! A27   A(7,11,10)            102.9492         estimate D2E/DX2                !
 ! A28   A(7,11,27)            120.08           estimate D2E/DX2                !
 ! A29   A(10,11,27)           121.4819         estimate D2E/DX2                !
 ! A30   A(5,12,13)            119.3748         estimate D2E/DX2                !
 ! A31   A(5,12,28)            120.9339         estimate D2E/DX2                !
 ! A32   A(13,12,28)           119.6835         estimate D2E/DX2                !
 ! A33   A(12,13,14)           119.5477         estimate D2E/DX2                !
 ! A34   A(12,13,29)           120.1246         estimate D2E/DX2                !
 ! A35   A(14,13,29)           120.2733         estimate D2E/DX2                !
 ! A36   A(13,14,15)           118.5447         estimate D2E/DX2                !
 ! A37   A(13,14,30)           120.2352         estimate D2E/DX2                !
 ! A38   A(15,14,30)           121.1685         estimate D2E/DX2                !
 ! A39   A(4,15,14)            121.5954         estimate D2E/DX2                !
 ! A40   A(4,15,16)            115.6752         estimate D2E/DX2                !
 ! A41   A(14,15,16)           122.3075         estimate D2E/DX2                !
 ! A42   A(15,16,17)           111.6491         estimate D2E/DX2                !
 ! A43   A(15,16,31)           109.6451         estimate D2E/DX2                !
 ! A44   A(15,16,32)           108.8931         estimate D2E/DX2                !
 ! A45   A(17,16,31)           108.8895         estimate D2E/DX2                !
 ! A46   A(17,16,32)           111.0751         estimate D2E/DX2                !
 ! A47   A(31,16,32)           106.5536         estimate D2E/DX2                !
 ! A48   A(16,17,18)           119.4733         estimate D2E/DX2                !
 ! A49   A(16,17,21)           131.4632         estimate D2E/DX2                !
 ! A50   A(18,17,21)           106.8745         estimate D2E/DX2                !
 ! A51   A(17,18,19)           103.1508         estimate D2E/DX2                !
 ! A52   A(17,18,33)           124.8475         estimate D2E/DX2                !
 ! A53   A(19,18,33)           127.9062         estimate D2E/DX2                !
 ! A54   A(18,19,20)           107.6887         estimate D2E/DX2                !
 ! A55   A(18,19,34)           127.6332         estimate D2E/DX2                !
 ! A56   A(20,19,34)           124.6345         estimate D2E/DX2                !
 ! A57   A(19,20,21)           111.6578         estimate D2E/DX2                !
 ! A58   A(19,20,35)           122.9342         estimate D2E/DX2                !
 ! A59   A(21,20,35)           125.4062         estimate D2E/DX2                !
 ! A60   A(17,21,20)           104.5196         estimate D2E/DX2                !
 ! A61   A(17,21,36)           126.1343         estimate D2E/DX2                !
 ! A62   A(20,21,36)           127.806          estimate D2E/DX2                !
 ! A63   L(2,1,4,3,-1)         179.9607         estimate D2E/DX2                !
 ! A64   L(2,1,4,3,-2)         179.2311         estimate D2E/DX2                !
 ! D1    D(2,1,3,4)            179.2311         estimate D2E/DX2                !
 ! D2    D(3,1,4,5)             37.7006         estimate D2E/DX2                !
 ! D3    D(3,1,4,15)           -83.457          estimate D2E/DX2                !
 ! D4    D(1,4,5,6)             68.8365         estimate D2E/DX2                !
 ! D5    D(1,4,5,12)          -114.4054         estimate D2E/DX2                !
 ! D6    D(15,4,5,6)           173.146          estimate D2E/DX2                !
 ! D7    D(15,4,5,12)          -10.096          estimate D2E/DX2                !
 ! D8    D(1,4,15,14)          106.5629         estimate D2E/DX2                !
 ! D9    D(1,4,15,16)          -66.1445         estimate D2E/DX2                !
 ! D10   D(5,4,15,14)            8.5012         estimate D2E/DX2                !
 ! D11   D(5,4,15,16)         -164.2062         estimate D2E/DX2                !
 ! D12   D(4,5,6,7)            -33.6054         estimate D2E/DX2                !
 ! D13   D(4,5,6,22)            90.3992         estimate D2E/DX2                !
 ! D14   D(4,5,6,23)          -156.0474         estimate D2E/DX2                !
 ! D15   D(12,5,6,7)           149.5926         estimate D2E/DX2                !
 ! D16   D(12,5,6,22)          -86.4029         estimate D2E/DX2                !
 ! D17   D(12,5,6,23)           27.1506         estimate D2E/DX2                !
 ! D18   D(4,5,12,13)            5.2657         estimate D2E/DX2                !
 ! D19   D(4,5,12,28)         -175.7595         estimate D2E/DX2                !
 ! D20   D(6,5,12,13)         -177.891          estimate D2E/DX2                !
 ! D21   D(6,5,12,28)            1.0838         estimate D2E/DX2                !
 ! D22   D(5,6,7,8)           -119.3834         estimate D2E/DX2                !
 ! D23   D(5,6,7,11)            72.0345         estimate D2E/DX2                !
 ! D24   D(22,6,7,8)           116.9979         estimate D2E/DX2                !
 ! D25   D(22,6,7,11)          -51.5843         estimate D2E/DX2                !
 ! D26   D(23,6,7,8)             3.2193         estimate D2E/DX2                !
 ! D27   D(23,6,7,11)         -165.3628         estimate D2E/DX2                !
 ! D28   D(6,7,8,9)            165.0991         estimate D2E/DX2                !
 ! D29   D(6,7,8,24)            10.6601         estimate D2E/DX2                !
 ! D30   D(11,7,8,9)           -25.0666         estimate D2E/DX2                !
 ! D31   D(11,7,8,24)         -179.5056         estimate D2E/DX2                !
 ! D32   D(6,7,11,10)         -158.7331         estimate D2E/DX2                !
 ! D33   D(6,7,11,27)          -19.9313         estimate D2E/DX2                !
 ! D34   D(8,7,11,10)           30.367          estimate D2E/DX2                !
 ! D35   D(8,7,11,27)          169.1687         estimate D2E/DX2                !
 ! D36   D(7,8,9,10)            10.363          estimate D2E/DX2                !
 ! D37   D(7,8,9,25)          -154.1556         estimate D2E/DX2                !
 ! D38   D(24,8,9,10)          164.7896         estimate D2E/DX2                !
 ! D39   D(24,8,9,25)            0.2709         estimate D2E/DX2                !
 ! D40   D(8,9,10,11)            8.7472         estimate D2E/DX2                !
 ! D41   D(8,9,10,26)         -166.3837         estimate D2E/DX2                !
 ! D42   D(25,9,10,11)         172.8123         estimate D2E/DX2                !
 ! D43   D(25,9,10,26)          -2.3186         estimate D2E/DX2                !
 ! D44   D(9,10,11,7)          -23.387          estimate D2E/DX2                !
 ! D45   D(9,10,11,27)        -161.4481         estimate D2E/DX2                !
 ! D46   D(26,10,11,7)         151.9043         estimate D2E/DX2                !
 ! D47   D(26,10,11,27)         13.8431         estimate D2E/DX2                !
 ! D48   D(5,12,13,14)           1.1634         estimate D2E/DX2                !
 ! D49   D(5,12,13,29)         178.4871         estimate D2E/DX2                !
 ! D50   D(28,12,13,14)       -177.8244         estimate D2E/DX2                !
 ! D51   D(28,12,13,29)         -0.5007         estimate D2E/DX2                !
 ! D52   D(12,13,14,15)         -2.8106         estimate D2E/DX2                !
 ! D53   D(12,13,14,30)        174.6082         estimate D2E/DX2                !
 ! D54   D(29,13,14,15)        179.8698         estimate D2E/DX2                !
 ! D55   D(29,13,14,30)         -2.7114         estimate D2E/DX2                !
 ! D56   D(13,14,15,4)          -1.9653         estimate D2E/DX2                !
 ! D57   D(13,14,15,16)        170.2555         estimate D2E/DX2                !
 ! D58   D(30,14,15,4)        -179.359          estimate D2E/DX2                !
 ! D59   D(30,14,15,16)         -7.1382         estimate D2E/DX2                !
 ! D60   D(4,15,16,17)          79.3578         estimate D2E/DX2                !
 ! D61   D(4,15,16,31)        -159.8765         estimate D2E/DX2                !
 ! D62   D(4,15,16,32)         -43.6502         estimate D2E/DX2                !
 ! D63   D(14,15,16,17)        -93.2926         estimate D2E/DX2                !
 ! D64   D(14,15,16,31)         27.4731         estimate D2E/DX2                !
 ! D65   D(14,15,16,32)        143.6995         estimate D2E/DX2                !
 ! D66   D(15,16,17,18)         66.361          estimate D2E/DX2                !
 ! D67   D(15,16,17,21)       -132.8524         estimate D2E/DX2                !
 ! D68   D(31,16,17,18)        -54.8446         estimate D2E/DX2                !
 ! D69   D(31,16,17,21)        105.942          estimate D2E/DX2                !
 ! D70   D(32,16,17,18)       -171.8824         estimate D2E/DX2                !
 ! D71   D(32,16,17,21)        -11.0958         estimate D2E/DX2                !
 ! D72   D(16,17,18,19)       -169.6732         estimate D2E/DX2                !
 ! D73   D(16,17,18,33)        -11.0112         estimate D2E/DX2                !
 ! D74   D(21,17,18,19)         25.2609         estimate D2E/DX2                !
 ! D75   D(21,17,18,33)       -176.0771         estimate D2E/DX2                !
 ! D76   D(16,17,21,20)        175.8189         estimate D2E/DX2                !
 ! D77   D(16,17,21,36)          9.1325         estimate D2E/DX2                !
 ! D78   D(18,17,21,20)        -21.602          estimate D2E/DX2                !
 ! D79   D(18,17,21,36)        171.7116         estimate D2E/DX2                !
 ! D80   D(17,18,19,20)        -18.1317         estimate D2E/DX2                !
 ! D81   D(17,18,19,34)        164.2013         estimate D2E/DX2                !
 ! D82   D(33,18,19,20)       -175.8928         estimate D2E/DX2                !
 ! D83   D(33,18,19,34)          6.4401         estimate D2E/DX2                !
 ! D84   D(18,19,20,21)          5.7455         estimate D2E/DX2                !
 ! D85   D(18,19,20,35)       -173.7788         estimate D2E/DX2                !
 ! D86   D(34,19,20,21)       -176.5            estimate D2E/DX2                !
 ! D87   D(34,19,20,35)          3.9758         estimate D2E/DX2                !
 ! D88   D(19,20,21,17)         10.7941         estimate D2E/DX2                !
 ! D89   D(19,20,21,36)        177.1792         estimate D2E/DX2                !
 ! D90   D(35,20,21,17)       -169.6959         estimate D2E/DX2                !
 ! D91   D(35,20,21,36)         -3.3108         estimate D2E/DX2                !
 --------------------------------------------------------------------------------
 Trust Radius=3.00D-01 FncErr=1.00D-07 GrdErr=1.00D-07
 Number of steps in this run=    203 maximum allowed number of steps=    216.
 GradGradGradGradGradGradGradGradGradGradGradGradGradGradGradGradGradGrad

 Leave Link  103 at Mon Sep 15 12:51:58 2025, MaxMem=    33554432 cpu:         0.0
 (Enter /appl/g09.shchoi/G09Files/g09/l202.exe)
                          Input orientation:                          
 ---------------------------------------------------------------------
 Center     Atomic      Atomic             Coordinates (Angstroms)
 Number     Number       Type             X           Y           Z
 ---------------------------------------------------------------------
      1         40           0        0.000000    0.000000    0.000000
      2         17           0        0.000000    0.000000   -2.770000
      3         17           0        2.770000    0.000000    0.000000
      4          7           0        0.001687    0.033012    2.459778
      5          6           0        1.077733    0.864870    2.468153
      6          6           0        0.964752    2.324712    1.984795
      7          6           0        0.017128    2.720293    0.846704
      8          6           0        0.288649    3.298428   -0.392844
      9          6           0       -0.969350    3.091564   -1.174360
     10          6           0       -1.948603    2.646409   -0.332881
     11          6           0       -1.445066    2.746476    1.031494
     12          6           0        2.297078    0.423634    2.982744
     13          6           0        2.429719   -0.905681    3.383328
     14          6           0        1.352995   -1.776095    3.241129
     15          6           0        0.152122   -1.273084    2.754895
     16          6           0       -1.002054   -2.171458    2.362808
     17          6           0       -0.970933   -2.506391    0.899867
     18          6           0        0.188532   -3.376694    0.339005
     19          6           0        0.027673   -3.275220   -1.010129
     20          6           0       -1.356436   -2.798025   -1.265224
     21          6           0       -2.002776   -2.485764   -0.105891
     22          1           0        0.705923    2.931514    2.861004
     23          1           0        1.971985    2.639036    1.677941
     24          1           0        1.276870    3.419130   -0.821458
     25          1           0       -0.995391    3.040367   -2.253010
     26          1           0       -2.902672    2.212367   -0.607272
     27          1           0       -1.906046    2.185233    1.855787
     28          1           0        3.146207    1.095546    3.059668
     29          1           0        3.381297   -1.268649    3.762988
     30          1           0        1.469646   -2.830709    3.466757
     31          1           0       -0.957771   -3.102414    2.941281
     32          1           0       -1.943081   -1.679358    2.634579
     33          1           0        1.083407   -3.634059    0.881612
     34          1           0        0.739074   -3.525798   -1.777129
     35          1           0       -1.777788   -2.724490   -2.254166
     36          1           0       -2.995335   -2.078071    0.008986
 ---------------------------------------------------------------------
                    Distance matrix (angstroms):
                    1          2          3          4          5
     1  Zr   0.000000
     2  Cl   2.770000   0.000000
     3  Cl   2.770000   3.917372   0.000000
     4  N    2.460000   5.229882   3.703398   0.000000
     5  C    2.828655   5.417357   3.115052   1.360122   0.000000
     6  C    3.205377   5.379880   3.550017   2.530809   1.541928
     7  C    2.849069   4.525575   3.961717   3.134282   2.682643
     8  C    3.334257   4.076005   4.146209   4.345427   3.837989
     9  C    3.446234   3.611575   4.991956   4.848155   4.734619
    10  C    3.303233   4.091465   5.420287   4.293299   4.492035
    11  C    3.270371   4.907413   5.135552   3.390572   3.459617
    12  C    3.788509   6.208873   3.049571   2.386399   1.395097
    13  C    4.262710   6.677368   3.518942   2.762142   2.408373
    14  C    3.935737   6.412393   3.958199   2.389438   2.765494
    15  C    3.038639   5.671715   4.007926   1.347446   2.347301
    16  C    3.361875   5.662602   4.952422   2.424167   3.681833
    17  C    2.834514   4.548916   4.591986   3.134945   4.245226
    18  C    3.398901   4.593857   4.263914   4.019787   4.828542
    19  C    3.427564   3.718196   4.389509   4.794302   5.508304
    20  C    3.357030   3.454448   5.143657   4.871848   5.768889
    21  C    3.193955   4.157837   5.382344   4.116402   5.228956
    22  H    4.156615   6.387512   4.586887   3.009692   2.136257
    23  H    3.697123   5.535107   3.227510   3.359271   2.138174
    24  H    3.741074   4.137349   3.820298   4.884506   4.169586
    25  H    3.912888   3.240666   5.338357   5.678796   5.596429
    26  H    3.699845   4.242342   6.119032   4.753072   5.207457
    27  H    3.442702   5.459502   5.484943   2.938759   3.319832
    28  H    4.523319   6.714453   3.271593   3.372959   2.163721
    29  H    5.215622   7.464755   4.017864   3.848953   3.396308
    30  H    4.710751   7.004992   4.660712   3.371915   3.848131
    31  H    4.381031   6.569705   5.672070   3.314106   4.484023
    32  H    3.679242   5.983752   5.654590   2.597093   3.952988
    33  H    3.893250   5.264449   4.102222   4.136199   4.770483
    34  H    4.016922   3.736746   4.440056   5.582136   6.116786
    35  H    3.957858   3.293852   5.760771   5.743832   6.583145
    36  H    3.645613   4.584013   6.128421   4.409671   5.594487
                    6          7          8          9         10
     6  C    0.000000
     7  C    1.532881   0.000000
     8  C    2.656765   1.394433   0.000000
     9  C    3.782733   2.279403   1.495367   0.000000
    10  C    3.736675   2.293682   2.331099   1.365718   0.000000
    11  C    2.625622   1.474057   2.310662   2.282801   1.457765
    12  C    2.526875   3.877562   4.867527   5.921902   5.827513
    13  C    3.812803   5.040113   6.043027   6.950119   6.752574
    14  C    4.306476   5.266433   6.331617   6.970218   6.575153
    15  C    3.767965   4.427920   5.552082   5.978870   5.413855
    16  C    4.922069   5.221736   6.259327   6.341295   5.601298
    17  C    5.316343   5.319522   6.078945   5.969884   5.387658
    18  C    5.984745   6.120489   6.715867   6.743094   6.426239
    19  C    6.419263   6.276473   6.607723   6.446469   6.279334
    20  C    6.495611   6.066197   6.374487   5.902994   5.555338
    21  C    6.026431   5.664846   6.228149   5.772017   5.137476
    22  H    1.096788   2.139266   3.300950   4.372222   4.162775
    23  H    1.098853   2.125800   2.748921   4.122118   4.406186
    24  H    3.028238   2.204107   1.083909   2.297247   3.352534
    25  H    4.723697   3.276564   2.274989   1.080179   2.179613
    26  H    4.657080   3.301101   3.377875   2.198251   1.083481
    27  H    2.877078   2.236769   3.333502   3.298580   2.237133
    28  H    2.724876   4.162710   4.993813   6.232888   6.314401
    29  H    4.681230   5.977793   6.906055   7.894111   7.778924
    30  H    5.387904   6.307782   7.338773   7.909614   7.491362
    31  H    5.836494   6.264311   7.323983   7.436665   6.689608
    32  H    4.991021   5.137689   6.238931   6.182060   5.245771
    33  H    6.061193   6.443288   7.093324   7.326311   7.079009
    34  H    6.959272   6.813175   6.977763   6.860868   6.885172
    35  H    7.140361   6.517881   6.634019   5.970429   5.706756
    36  H    6.242644   5.727216   6.312904   5.677151   4.851107
                   11         12         13         14         15
    11  C    0.000000
    12  C    4.817325   0.000000
    13  C    5.820939   1.394682   0.000000
    14  C    5.758931   2.407668   1.391826   0.000000
    15  C    4.655962   2.744377   2.391101   1.389799   0.000000
    16  C    5.114169   4.243005   3.797462   2.544408   1.514242
    17  C    5.275864   4.858324   4.504918   3.378680   2.494679
    18  C    6.375060   5.087025   4.516274   3.512865   3.203596
    19  C    6.526715   5.897013   5.539586   4.698622   4.266081
    20  C    6.002021   6.463164   6.286889   5.356545   4.556594
    21  C    5.383402   6.040945   5.858185   4.792429   3.781306
    22  H    2.829859   2.972551   4.238910   4.767052   4.242240
    23  H    3.479322   2.591564   3.960161   4.724414   4.447068
    24  H    3.360779   4.948311   6.141113   6.595512   6.006016
    25  H    3.328145   6.715711   7.685765   7.674555   6.708335
    26  H    2.257308   6.566977   7.354013   6.987756   5.725758
    27  H    1.098615   4.694626   5.539493   5.313440   4.123639
    28  H    5.283829   1.085543   2.150121   3.390408   3.829862
    29  H    6.846610   2.155953   1.086917   2.154959   3.382875
    30  H    6.747670   3.392589   2.152774   1.084770   2.160744
    31  H    6.172054   4.798831   4.061543   2.681169   2.147801
    32  H    4.733488   4.745814   4.503397   3.352816   2.137618
    33  H    6.864901   4.727857   3.938933   3.015300   3.154471
    34  H    7.211119   6.378227   6.029395   5.349885   5.094946
    35  H    6.390440   7.344416   7.265846   6.395273   5.560739
    36  H    5.169633   6.565927   6.495529   5.426409   4.253764
                   16         17         18         19         20
    16  C    0.000000
    17  C    1.501115   0.000000
    18  C    2.639293   1.554462   0.000000
    19  C    3.695313   2.288318   1.362474   0.000000
    20  C    3.698755   2.218397   2.301159   1.486118   0.000000
    21  C    2.682296   1.441068   2.406973   2.358731   1.363567
    22  H    5.404230   6.019029   6.813345   7.346377   7.355725
    23  H    5.696911   5.978426   6.415798   6.781187   7.021555
    24  H    6.825519   6.567144   6.979568   6.812519   6.766405
    25  H    6.961964   6.380264   7.021317   6.517520   5.932360
    26  H    5.625980   5.316932   6.456670   6.234006   5.284674
    27  H    4.478284   4.878479   6.133752   6.462917   5.905560
    28  H    5.326067   5.881287   6.012552   6.737366   7.357879
    29  H    4.689278   5.354565   5.134322   6.168936   7.075876
    30  H    2.786147   3.556758   3.423768   4.724340   5.511756
    31  H    1.096937   2.126684   2.856761   4.076102   4.236304
    32  H    1.096154   2.153667   3.562918   4.440107   4.099272
    33  H    2.946573   2.343562   1.077711   2.195910   3.355695
    34  H    4.690932   3.336109   2.191655   1.075718   2.276590
    35  H    4.714240   3.262899   3.319084   2.260668   1.077474
    36  H    3.085834   2.252850   3.454322   3.407395   2.197256
                   21         22         23         24         25
    21  C    0.000000
    22  H    6.744362   0.000000
    23  H    6.726393   1.757298   0.000000
    24  H    6.792340   3.758228   2.709009   0.000000
    25  H    6.013574   5.390683   4.941535   2.712189   0.000000
    26  H    4.809744   5.056488   5.400605   4.355539   2.651746
    27  H    5.067125   2.896512   3.908541   4.338329   4.294504
    28  H    7.025566   3.060267   2.381245   4.894549   7.011399
    29  H    6.740759   5.060886   4.647965   6.886293   8.597398
    30  H    4.994048   5.844093   5.776705   7.581981   8.559304
    31  H    3.279871   6.259601   6.568390   7.853812   8.044616
    32  H    2.857278   5.322465   5.906897   6.950314   6.860209
    33  H    3.437771   6.867841   6.385564   7.258468   7.661281
    34  H    3.375270   7.950488   7.173754   7.030970   6.808036
    35  H    2.173176   8.020235   7.634767   7.009111   5.817708
    36  H    1.079159   6.850494   7.050587   7.011461   5.942627
                   26         27         28         29         30
    26  H    0.000000
    27  H    2.657191   0.000000
    28  H    7.161193   5.306789   0.000000
    29  H    8.408622   6.597174   2.477770   0.000000
    30  H    7.819687   6.257012   4.288596   2.486401   0.000000
    31  H    6.679953   5.480577   5.871927   4.781778   2.498460
    32  H    5.155187   3.942455   5.812199   5.458112   3.696598
    33  H    7.230927   6.614379   5.600736   4.379246   2.734507
    34  H    6.896188   7.267091   7.109551   6.539798   5.339964
    35  H    5.324489   6.404181   8.189947   8.058645   6.579215
    36  H    4.335461   4.772105   7.556259   7.443731   5.697254
                   31         32         33         34         35
    31  H    0.000000
    32  H    1.757836   0.000000
    33  H    2.948100   4.006667   0.000000
    34  H    5.032090   5.483290   2.683130   0.000000
    35  H    5.273322   5.001945   4.341296   2.684074   0.000000
    36  H    3.714741   2.856563   4.451821   4.385422   2.649931
                   36
    36  H    0.000000
 Stoichiometry    C17H15Cl2NZr
 Framework group  C1[X(C17H15Cl2NZr)]
 Deg. of freedom   102
 Full point group                 C1      NOp   1
 Largest Abelian subgroup         C1      NOp   1
 Largest concise Abelian subgroup C1      NOp   1
                         Standard orientation:                         
 ---------------------------------------------------------------------
 Center     Atomic      Atomic             Coordinates (Angstroms)
 Number     Number       Type             X           Y           Z
 ---------------------------------------------------------------------
      1         40           0        0.270522   -0.450622    0.023358
      2         17           0        1.230179   -2.715884    1.296365
      3         17           0       -0.028287    0.801220    2.476215
      4          7           0       -0.551080    1.573472   -1.107843
      5          6           0        0.105105    2.363054   -0.215704
      6          6           0        1.645100    2.436937   -0.193396
      7          6           0        2.510232    1.218934   -0.536532
      8          6           0        3.449112    0.533982    0.234044
      9          6           0        3.662805   -0.747373   -0.506624
     10          6           0        3.062097   -0.660410   -1.730050
     11          6           0        2.628342    0.718575   -1.918029
     12          6           0       -0.615872    3.177698    0.657705
     13          6           0       -2.007678    3.091524    0.681925
     14          6           0       -2.653357    2.178455   -0.146678
     15          6           0       -1.886631    1.417364   -1.020984
     16          6           0       -2.463436    0.254975   -1.801419
     17          6           0       -2.272068   -1.046686   -1.078645
     18          6           0       -3.013823   -1.291494    0.265312
     19          6           0       -2.434510   -2.431329    0.735955
     20          6           0       -1.752152   -3.095408   -0.405067
     21          6           0       -1.793097   -2.328148   -1.531544
     22          1           0        1.934907    3.252753   -0.866746
     23          1           0        1.935656    2.753205    0.818053
     24          1           0        3.603477    0.673086    1.297849
     25          1           0        3.991602   -1.659488   -0.030469
     26          1           0        2.855617   -1.470648   -2.419116
     27          1           0        1.869504    0.984337   -2.666688
     28          1           0       -0.108001    3.863791    1.328337
     29          1           0       -2.580092    3.702702    1.374884
     30          1           0       -3.726847    2.039869   -0.074989
     31          1           0       -3.536131    0.416301   -1.964422
     32          1           0       -1.997517    0.227311   -2.793240
     33          1           0       -3.538166   -0.535053    0.825957
     34          1           0       -2.479026   -2.826362    1.735523
     35          1           0       -1.295560   -4.068365   -0.328717
     36          1           0       -1.345918   -2.537485   -2.491123
 ---------------------------------------------------------------------
 Rotational constants (GHZ):      0.2911818      0.2682935      0.1980510
 Leave Link  202 at Mon Sep 15 12:51:58 2025, MaxMem=    33554432 cpu:         0.0
 (Enter /appl/g09.shchoi/G09Files/g09/l301.exe)
 Standard basis: SDD (6D, 10F)
 Ernie: Thresh=  0.10000D-02 Tol=  0.10000D-05 Strict=F.
 There are   285 symmetry adapted cartesian basis functions of A   symmetry.
 There are   285 symmetry adapted basis functions of A   symmetry.
   285 basis functions,   629 primitive gaussians,   285 cartesian basis functions
    85 alpha electrons       85 beta electrons
       nuclear repulsion energy      2011.7879663830 Hartrees.
 IExCor=    0 DFT=F Ex=HF Corr=None ExCW=0 ScaHFX=  1.000000
 ScaDFX=  1.000000  1.000000  1.000000  1.000000 ScalE2=  1.000000  1.000000
 IRadAn=      0 IRanWt=     -1 IRanGd=            0 ICorTp=0 IEmpDi=  4
 NAtoms=   36 NActive=   36 NUniq=   36 SFac= 1.00D+00 NAtFMM=   60 NAOKFM=F Big=F
 Integral buffers will be    131072 words long.
 Raffenetti 1 integral format.
 Two-electron integral symmetry is turned on.
 Leave Link  301 at Mon Sep 15 12:51:58 2025, MaxMem=    33554432 cpu:         0.0
 (Enter /appl/g09.shchoi/G09Files/g09/l402.exe)
 External calculation of energy and first derivatives.
 Running external command "/home/rxn_grp/programs/xtb-gaussian R"
         input file       "/home/rxn_grp/scratch/Gau-2488808.EIn"
         output file      "/home/rxn_grp/scratch/Gau-2488808.EOu"
         message file     "/home/rxn_grp/scratch/Gau-2488808.EMs"
         fchk file        "/home/rxn_grp/scratch/Gau-2488808.EFC"
         mat. el file     "/home/rxn_grp/scratch/Gau-2488808.EUF"

 ExternalExternalExternalExternalExternalExternalExternalExternalExternalExternal
 Output from external command:
 "/home/rxn_grp/programs/xtb-gaussian R /home/rxn_grp/scratch/Gau-2488808.EIn /home/rxn_grp/scratch/Gau-2488808.EOu /home/rxn_grp/scratch/Gau-2488808.EMs /home/rxn_grp/scratch/Gau-2488808.EFC /home/rxn_grp/scratch/Gau-2488808.EUF"
 normal termination of xtb
  
 ------- xtb command was ---------
 ?> xtb ./Gau-2488808.EIn  --grad --charge 0  >/dev/null 2>Gau-2488808.EMs
 ---------------------------------
              Control returned to Gaussian.
 ~~~~~~~~~~~~~~~~~~~~~~~~~~~~~~~~~~~~~~~~~~~~~~~~~~~~~~~~~~~~~~~~~~~~~~~~~
 ExternalExternalExternalExternalExternalExternalExternalExternalExternalExternal

 Recovered energy= -57.6710662809     dipole=     -2.068741925850      2.555327931710     -2.096226847230
 Energy=    -57.6710663     NIter=   0.
 Dipole moment=      -2.068742       2.555328      -2.096227
 Leave Link  402 at Mon Sep 15 12:51:58 2025, MaxMem=    33554432 cpu:         0.0
 (Enter /appl/g09.shchoi/G09Files/g09/l601.exe)
 Leave Link  601 at Mon Sep 15 12:51:58 2025, MaxMem=    33554432 cpu:         0.0
 (Enter /appl/g09.shchoi/G09Files/g09/l716.exe)
 Dipole        =-2.06874193D+00 2.55532793D+00-2.09622685D+00
 ***** Axes restored to original set *****
 -------------------------------------------------------------------
 Center     Atomic                   Forces (Hartrees/Bohr)
 Number     Number              X              Y              Z
 -------------------------------------------------------------------
      1       40           0.017527613    0.002787163   -0.022091187
      2       17          -0.001603962    0.000498967    0.044799883
      3       17          -0.043784846   -0.002233411   -0.000174267
      4        7           0.006442218    0.008686769   -0.033324652
      5        6          -0.004816833    0.008070506    0.002315278
      6        6           0.006330513    0.011280030    0.002899045
      7        6          -0.021272232   -0.008059825    0.027321232
      8        6          -0.027266721   -0.039431420   -0.033118177
      9        6           0.049760090    0.002703794    0.003010501
     10        6          -0.000719514   -0.000894997    0.033793884
     11        6           0.015489954   -0.061580923   -0.029958527
     12        6           0.002517544   -0.004806635    0.004835633
     13        6           0.000170866    0.003763132    0.000275344
     14        6           0.003632360    0.000863470    0.000424209
     15        6           0.002454417   -0.004780271   -0.006406080
     16        6          -0.011598053   -0.008211101    0.018889484
     17        6           0.043770541   -0.017325824   -0.005236649
     18        6          -0.028735036    0.066053055    0.014581902
     19        6          -0.041104288    0.005582779   -0.013400543
     20        6           0.035845125   -0.017427684   -0.027676402
     21        6           0.025136382    0.029156239    0.015418837
     22        1          -0.000529321   -0.000943207    0.003023300
     23        1           0.000720197   -0.002576011    0.001908031
     24        1          -0.003746893    0.004396613   -0.000345756
     25        1          -0.000903513    0.009630771    0.001262964
     26        1          -0.004299821    0.011841099   -0.000087468
     27        1          -0.001061518    0.009702877   -0.000732929
     28        1          -0.003955560   -0.002587258   -0.002075005
     29        1          -0.004504397    0.002051171   -0.001711963
     30        1          -0.002158802    0.003956297    0.000195882
     31        1           0.002160148    0.000206146    0.003327181
     32        1          -0.001897513    0.002514390   -0.001788375
     33        1          -0.001768692   -0.000782298    0.001334594
     34        1          -0.003625977   -0.006432821   -0.001383598
     35        1          -0.000627947   -0.003849718   -0.001015962
     36        1          -0.001976529   -0.001821864    0.000910355
 -------------------------------------------------------------------
 Cartesian Forces:  Max     0.066053055 RMS     0.017841764
 Leave Link  716 at Mon Sep 15 12:51:58 2025, MaxMem=    33554432 cpu:         0.0
 (Enter /appl/g09.shchoi/G09Files/g09/l103.exe)

 GradGradGradGradGradGradGradGradGradGradGradGradGradGradGradGradGradGrad
 Berny optimization.
 FormGI is forming the generalized inverse of G from B-inverse, IUseBI=4.
 Internal  Forces:  Max     0.156201964 RMS     0.025109342
 Search for a local minimum.
 Step number   1 out of a maximum of  203
 All quantities printed in internal units (Hartrees-Bohrs-Radians)
 RMS Force = .25109D-01 SwitMx=.10000D-02 MixMth= 1
 Mixed Optimization -- RFO/linear search
 Second derivative matrix not updated -- first step.
 ITU=  0
     Eigenvalues ---    0.00230   0.00230   0.00230   0.00331   0.00578
     Eigenvalues ---    0.00751   0.00972   0.01074   0.01294   0.01415
     Eigenvalues ---    0.01484   0.01517   0.01638   0.01668   0.01818
     Eigenvalues ---    0.01940   0.02002   0.02026   0.02048   0.02157
     Eigenvalues ---    0.02163   0.02174   0.02182   0.02212   0.02215
     Eigenvalues ---    0.02221   0.02323   0.02772   0.03676   0.04997
     Eigenvalues ---    0.05720   0.05720   0.06019   0.06462   0.06473
     Eigenvalues ---    0.06973   0.08487   0.09860   0.11135   0.11199
     Eigenvalues ---    0.13208   0.13553   0.13991   0.14044   0.15227
     Eigenvalues ---    0.15245   0.15925   0.15977   0.15981   0.15987
     Eigenvalues ---    0.15998   0.15999   0.16735   0.20825   0.21282
     Eigenvalues ---    0.21303   0.21948   0.22138   0.22298   0.22647
     Eigenvalues ---    0.22732   0.23414   0.23574   0.24490   0.24817
     Eigenvalues ---    0.24964   0.25000   0.26481   0.28349   0.29159
     Eigenvalues ---    0.30928   0.31041   0.32261   0.32503   0.33809
     Eigenvalues ---    0.33836   0.33836   0.34023   0.34040   0.34111
     Eigenvalues ---    0.35171   0.35333   0.35424   0.35526   0.35577
     Eigenvalues ---    0.35673   0.35973   0.36096   0.36272   0.36301
     Eigenvalues ---    0.36517   0.37676   0.42906   0.43547   0.43597
     Eigenvalues ---    0.46649   0.47074   0.47590   0.49934   0.51488
     Eigenvalues ---    0.51729   0.54262
 RFO step:  Lambda=-2.70014881D-01 EMin= 2.30000000D-03
 Linear search not attempted -- first point.
 Maximum step size (   0.300) exceeded in Quadratic search.
    -- Step size scaled by   0.469
 Iteration  1 RMS(Cart)=  0.36564731 RMS(Int)=  0.00967549
 Iteration  2 RMS(Cart)=  0.05319600 RMS(Int)=  0.00043082
 Iteration  3 RMS(Cart)=  0.00076818 RMS(Int)=  0.00039373
 Iteration  4 RMS(Cart)=  0.00000080 RMS(Int)=  0.00039373
 ITry= 1 IFail=0 DXMaxC= 1.92D+00 DCOld= 1.00D+10 DXMaxT= 3.00D-01 DXLimC= 3.00D+00 Rises=F
 Variable       Old X    -DE/DX   Delta X   Delta X   Delta X     New X
                                 (Linear)    (Quad)   (Total)
    R1        5.23454  -0.04480   0.00000  -0.06424  -0.06424   5.17030
    R2        5.23454  -0.04378   0.00000  -0.06279  -0.06279   5.17175
    R3        4.64873  -0.02253   0.00000  -0.03159  -0.03159   4.61714
    R4        2.57026  -0.03662   0.00000  -0.02246  -0.02248   2.54778
    R5        2.54630  -0.04912   0.00000  -0.02880  -0.02886   2.51744
    R6        2.91382  -0.06426   0.00000  -0.05447  -0.05447   2.85935
    R7        2.63635  -0.00411   0.00000  -0.00266  -0.00264   2.63371
    R8        2.89673  -0.02305   0.00000  -0.01926  -0.01926   2.87747
    R9        2.07263   0.00202   0.00000   0.00155   0.00155   2.07418
   R10        2.07653  -0.00061   0.00000  -0.00047  -0.00047   2.07606
   R11        2.63510   0.00294   0.00000   0.00180   0.00182   2.63691
   R12        2.78556  -0.02320   0.00000  -0.01782  -0.01783   2.76774
   R13        2.82583  -0.04212   0.00000  -0.03295  -0.03297   2.79286
   R14        2.04829  -0.00279   0.00000  -0.00209  -0.00209   2.04620
   R15        2.58083   0.01890   0.00000   0.01142   0.01141   2.59224
   R16        2.04124  -0.00170   0.00000  -0.00126  -0.00126   2.03998
   R17        2.75478  -0.02126   0.00000  -0.01538  -0.01535   2.73943
   R18        2.04748  -0.00094   0.00000  -0.00070  -0.00070   2.04678
   R19        2.07608  -0.00506   0.00000  -0.00390  -0.00390   2.07218
   R20        2.63557  -0.00246   0.00000  -0.00056  -0.00051   2.63506
   R21        2.05138  -0.00484   0.00000  -0.00365  -0.00365   2.04773
   R22        2.63017   0.00408   0.00000   0.00360   0.00363   2.63380
   R23        2.05397  -0.00523   0.00000  -0.00394  -0.00394   2.05003
   R24        2.62634  -0.00067   0.00000  -0.00043  -0.00046   2.62587
   R25        2.04992  -0.00404   0.00000  -0.00303  -0.00303   2.04688
   R26        2.86150  -0.04118   0.00000  -0.03335  -0.03335   2.82815
   R27        2.83670   0.00475   0.00000   0.00376   0.00376   2.84045
   R28        2.07291   0.00167   0.00000   0.00128   0.00128   2.07419
   R29        2.07143   0.00231   0.00000   0.00178   0.00178   2.07321
   R30        2.93751  -0.05283   0.00000  -0.04621  -0.04624   2.89126
   R31        2.72322  -0.00609   0.00000  -0.00399  -0.00401   2.71921
   R32        2.57470   0.01619   0.00000   0.00958   0.00966   2.58436
   R33        2.03658  -0.00061   0.00000  -0.00045  -0.00045   2.03613
   R34        2.80836  -0.04188   0.00000  -0.03225  -0.03222   2.77613
   R35        2.03281   0.00009   0.00000   0.00006   0.00006   2.03288
   R36        2.57677   0.02141   0.00000   0.01278   0.01273   2.58950
   R37        2.03613   0.00092   0.00000   0.00068   0.00068   2.03681
   R38        2.03931   0.00123   0.00000   0.00091   0.00091   2.04023
    A1        1.57080   0.00244   0.00000   0.00345   0.00345   1.57425
    A2        1.57011   0.00351   0.00000   0.00442   0.00442   1.57453
    A3        1.58570   0.03179   0.00000   0.03521   0.03545   1.62116
    A4        1.77835  -0.01360   0.00000  -0.01137  -0.01104   1.76732
    A5        2.09805  -0.01234   0.00000  -0.01464  -0.01456   2.08349
    A6        2.11665  -0.09107   0.00000  -0.08125  -0.08133   2.03531
    A7        2.09475   0.02327   0.00000   0.01972   0.01950   2.11425
    A8        2.07044   0.06862   0.00000   0.06287   0.06284   2.13327
    A9        2.12042  -0.15620   0.00000  -0.15100  -0.15052   1.96989
   A10        1.86571   0.04247   0.00000   0.04009   0.04105   1.90676
   A11        1.86627   0.04439   0.00000   0.03942   0.03841   1.90468
   A12        1.88018   0.05841   0.00000   0.05889   0.05917   1.93936
   A13        1.86033   0.03647   0.00000   0.03069   0.02978   1.89011
   A14        1.85578  -0.01338   0.00000  -0.00495  -0.00704   1.84874
   A15        2.27392  -0.00701   0.00000  -0.00609  -0.00615   2.26777
   A16        2.12320   0.00597   0.00000   0.00584   0.00582   2.12902
   A17        1.87258   0.00299   0.00000   0.00351   0.00340   1.87598
   A18        1.81668   0.00746   0.00000   0.00873   0.00863   1.82531
   A19        2.18366   0.00207   0.00000   0.00333   0.00328   2.18693
   A20        2.18430  -0.00411   0.00000  -0.00337  -0.00341   2.18089
   A21        1.90317  -0.00394   0.00000  -0.00237  -0.00246   1.90071
   A22        2.15163   0.00221   0.00000   0.00172   0.00174   2.15337
   A23        2.19264   0.00319   0.00000   0.00314   0.00316   2.19581
   A24        1.88244   0.00063   0.00000   0.00188   0.00186   1.88430
   A25        2.22172  -0.00132   0.00000  -0.00202  -0.00202   2.21970
   A26        2.17570   0.00089   0.00000   0.00046   0.00047   2.17618
   A27        1.79680   0.00383   0.00000   0.00590   0.00570   1.80251
   A28        2.09579   0.00549   0.00000   0.00870   0.00862   2.10441
   A29        2.12026   0.00428   0.00000   0.00664   0.00644   2.12670
   A30        2.08348  -0.01537   0.00000  -0.01314  -0.01321   2.07027
   A31        2.11069   0.00670   0.00000   0.00545   0.00541   2.11611
   A32        2.08887   0.00847   0.00000   0.00738   0.00730   2.09617
   A33        2.08650  -0.00684   0.00000  -0.00341  -0.00348   2.08303
   A34        2.09657   0.00281   0.00000   0.00094   0.00091   2.09748
   A35        2.09917   0.00359   0.00000   0.00176   0.00171   2.10087
   A36        2.06900  -0.00959   0.00000  -0.00745  -0.00747   2.06153
   A37        2.09850   0.00592   0.00000   0.00496   0.00495   2.10345
   A38        2.11479   0.00378   0.00000   0.00263   0.00264   2.11743
   A39        2.12224   0.01840   0.00000   0.01483   0.01461   2.13685
   A40        2.01891  -0.08100   0.00000  -0.07313  -0.07305   1.94586
   A41        2.13467   0.06048   0.00000   0.05473   0.05451   2.18917
   A42        1.94864  -0.10753   0.00000  -0.10488  -0.10478   1.84387
   A43        1.91367   0.02831   0.00000   0.02850   0.02960   1.94327
   A44        1.90054   0.03224   0.00000   0.02677   0.02526   1.92581
   A45        1.90048   0.05154   0.00000   0.05592   0.05646   1.95694
   A46        1.93863   0.01100   0.00000   0.00273   0.00188   1.94051
   A47        1.85971  -0.01052   0.00000  -0.00375  -0.00465   1.85506
   A48        2.08520   0.01596   0.00000   0.01538   0.01546   2.10066
   A49        2.29447  -0.00417   0.00000  -0.00370  -0.00372   2.29075
   A50        1.86531  -0.00921   0.00000  -0.00751  -0.00768   1.85763
   A51        1.80032   0.01707   0.00000   0.01724   0.01715   1.81747
   A52        2.17900  -0.00936   0.00000  -0.00772  -0.00776   2.17124
   A53        2.23238  -0.00260   0.00000  -0.00137  -0.00150   2.23089
   A54        1.87952   0.00193   0.00000   0.00273   0.00279   1.88231
   A55        2.22762   0.00087   0.00000   0.00058   0.00055   2.22817
   A56        2.17528  -0.00281   0.00000  -0.00330  -0.00333   2.17196
   A57        1.94880  -0.01613   0.00000  -0.01455  -0.01463   1.93417
   A58        2.14561   0.00694   0.00000   0.00604   0.00607   2.15168
   A59        2.18875   0.00917   0.00000   0.00849   0.00853   2.19728
   A60        1.82421   0.01475   0.00000   0.01570   0.01553   1.83975
   A61        2.20146  -0.00619   0.00000  -0.00619  -0.00620   2.19525
   A62        2.23064  -0.00604   0.00000  -0.00550  -0.00547   2.22517
   A63        3.14091   0.00595   0.00000   0.00787   0.00787   3.14878
   A64        3.12817  -0.00131   0.00000  -0.00225  -0.00225   3.12592
    D1        3.12817  -0.00131   0.00000  -0.00225  -0.00225   3.12592
    D2        0.65800   0.00248   0.00000   0.00608   0.00613   0.66413
    D3       -1.45660   0.00908   0.00000   0.01385   0.01379  -1.44281
    D4        1.20142  -0.04001   0.00000  -0.06634  -0.06565   1.13577
    D5       -1.99675  -0.02067   0.00000  -0.03622  -0.03666  -2.03341
    D6        3.02197  -0.03871   0.00000  -0.06074  -0.05990   2.96207
    D7       -0.17621  -0.01936   0.00000  -0.03062  -0.03091  -0.20712
    D8        1.85987   0.03243   0.00000   0.04334   0.04389   1.90376
    D9       -1.15444   0.04658   0.00000   0.07020   0.06956  -1.08488
   D10        0.14837   0.00651   0.00000   0.01265   0.01278   0.16115
   D11       -2.86594   0.02066   0.00000   0.03950   0.03845  -2.82749
   D12       -0.58652  -0.01232   0.00000  -0.01973  -0.01997  -0.60650
   D13        1.57776  -0.01177   0.00000  -0.01669  -0.01736   1.56041
   D14       -2.72354   0.01326   0.00000   0.01456   0.01467  -2.70887
   D15        2.61088  -0.03006   0.00000  -0.04816  -0.04787   2.56301
   D16       -1.50801  -0.02951   0.00000  -0.04512  -0.04525  -1.55327
   D17        0.47387  -0.00448   0.00000  -0.01387  -0.01323   0.46064
   D18        0.09190   0.01491   0.00000   0.02212   0.02209   0.11399
   D19       -3.06758   0.00189   0.00000   0.00186   0.00169  -3.06589
   D20       -3.10478   0.02863   0.00000   0.04684   0.04802  -3.05676
   D21        0.01892   0.01561   0.00000   0.02657   0.02762   0.04654
   D22       -2.08363   0.00815   0.00000   0.01364   0.01288  -2.07075
   D23        1.25724  -0.00651   0.00000  -0.01074  -0.01147   1.24576
   D24        2.04200   0.01627   0.00000   0.02055   0.02154   2.06353
   D25       -0.90032   0.00161   0.00000  -0.00383  -0.00282  -0.90313
   D26        0.05619  -0.01313   0.00000  -0.01598  -0.01625   0.03994
   D27       -2.88613  -0.02779   0.00000  -0.04036  -0.04061  -2.92673
   D28        2.88152   0.00128   0.00000   0.00280   0.00294   2.88447
   D29        0.18605  -0.00922   0.00000  -0.01479  -0.01475   0.17130
   D30       -0.43749   0.01479   0.00000   0.02489   0.02497  -0.41252
   D31       -3.13296   0.00429   0.00000   0.00730   0.00728  -3.12569
   D32       -2.77042  -0.00845   0.00000  -0.01210  -0.01198  -2.78240
   D33       -0.34787   0.00804   0.00000   0.01363   0.01378  -0.33409
   D34        0.53000  -0.01898   0.00000  -0.03043  -0.03044   0.49957
   D35        2.95255  -0.00248   0.00000  -0.00470  -0.00468   2.94788
   D36        0.18087  -0.00815   0.00000  -0.01260  -0.01259   0.16828
   D37       -2.69052  -0.01396   0.00000  -0.02221  -0.02219  -2.71271
   D38        2.87612   0.00444   0.00000   0.00725   0.00726   2.88338
   D39        0.00473  -0.00137   0.00000  -0.00235  -0.00234   0.00239
   D40        0.15267  -0.00437   0.00000  -0.00662  -0.00663   0.14604
   D41       -2.90394  -0.00690   0.00000  -0.01081  -0.01078  -2.91472
   D42        3.01614   0.00138   0.00000   0.00296   0.00296   3.01910
   D43       -0.04047  -0.00115   0.00000  -0.00123  -0.00119  -0.04166
   D44       -0.40818   0.01281   0.00000   0.02080   0.02089  -0.38729
   D45       -2.81780  -0.00463   0.00000  -0.00649  -0.00644  -2.82424
   D46        2.65123   0.01513   0.00000   0.02469   0.02475   2.67598
   D47        0.24161  -0.00231   0.00000  -0.00259  -0.00258   0.23903
   D48        0.02031   0.00266   0.00000   0.00509   0.00561   0.02592
   D49        3.11519  -0.00800   0.00000  -0.01206  -0.01198   3.10320
   D50       -3.10362   0.01554   0.00000   0.02511   0.02578  -3.07784
   D51       -0.00874   0.00488   0.00000   0.00797   0.00819  -0.00055
   D52       -0.04905  -0.01370   0.00000  -0.02131  -0.02146  -0.07052
   D53        3.04749  -0.01096   0.00000  -0.01753  -0.01799   3.02950
   D54        3.13932  -0.00300   0.00000  -0.00412  -0.00381   3.13551
   D55       -0.04732  -0.00026   0.00000  -0.00033  -0.00034  -0.04766
   D56       -0.03430   0.00889   0.00000   0.01218   0.01207  -0.02223
   D57        2.97152  -0.01677   0.00000  -0.02602  -0.02702   2.94449
   D58       -3.13040   0.00607   0.00000   0.00830   0.00851  -3.12189
   D59       -0.12459  -0.01959   0.00000  -0.02991  -0.03059  -0.15517
   D60        1.38505  -0.04261   0.00000  -0.06774  -0.06756   1.31749
   D61       -2.79037  -0.02877   0.00000  -0.04653  -0.04671  -2.83708
   D62       -0.76184  -0.00735   0.00000  -0.01997  -0.01972  -0.78156
   D63       -1.62826  -0.02487   0.00000  -0.03738  -0.03736  -1.66562
   D64        0.47950  -0.01103   0.00000  -0.01617  -0.01651   0.46299
   D65        2.50803   0.01039   0.00000   0.01039   0.01048   2.51851
   D66        1.15822   0.00327   0.00000   0.00441   0.00338   1.16159
   D67       -2.31871   0.01318   0.00000   0.02146   0.02044  -2.29827
   D68       -0.95722   0.00210   0.00000  -0.00164  -0.00097  -0.95819
   D69        1.84904   0.01201   0.00000   0.01540   0.01609   1.86513
   D70       -2.99991  -0.02276   0.00000  -0.03261  -0.03228  -3.03219
   D71       -0.19366  -0.01285   0.00000  -0.01557  -0.01521  -0.20887
   D72       -2.96136  -0.01108   0.00000  -0.01615  -0.01599  -2.97735
   D73       -0.19218   0.00205   0.00000   0.00470   0.00481  -0.18737
   D74        0.44089  -0.01843   0.00000  -0.02892  -0.02882   0.41207
   D75       -3.07312  -0.00529   0.00000  -0.00808  -0.00802  -3.08114
   D76        3.06862   0.00193   0.00000   0.00506   0.00522   3.07384
   D77        0.15939  -0.00846   0.00000  -0.01173  -0.01160   0.14779
   D78       -0.37703   0.01455   0.00000   0.02385   0.02389  -0.35313
   D79        2.99693   0.00417   0.00000   0.00706   0.00707   3.00400
   D80       -0.31646   0.00773   0.00000   0.01536   0.01556  -0.30090
   D81        2.86585   0.00816   0.00000   0.01518   0.01532   2.88117
   D82       -3.06991  -0.00418   0.00000  -0.00470  -0.00460  -3.07451
   D83        0.11240  -0.00376   0.00000  -0.00488  -0.00483   0.10757
   D84        0.10028  -0.00450   0.00000  -0.00625  -0.00618   0.09409
   D85       -3.03301  -0.00249   0.00000  -0.00341  -0.00337  -3.03639
   D86       -3.08051  -0.00480   0.00000  -0.00597  -0.00585  -3.08636
   D87        0.06939  -0.00280   0.00000  -0.00313  -0.00304   0.06635
   D88        0.18839  -0.00897   0.00000  -0.01361  -0.01358   0.17481
   D89        3.09236   0.00170   0.00000   0.00351   0.00357   3.09593
   D90       -2.96175  -0.01105   0.00000  -0.01655  -0.01650  -2.97825
   D91       -0.05778  -0.00038   0.00000   0.00057   0.00065  -0.05714
         Item               Value     Threshold  Converged?
 Maximum Force            0.156202     0.000450     NO 
 RMS     Force            0.025109     0.000300     NO 
 Maximum Displacement     1.915391     0.001800     NO 
 RMS     Displacement     0.410710     0.001200     NO 
 Predicted change in Energy=-1.160532D-01
 GradGradGradGradGradGradGradGradGradGradGradGradGradGradGradGradGradGrad

 Leave Link  103 at Mon Sep 15 12:51:58 2025, MaxMem=    33554432 cpu:         0.0
 (Enter /appl/g09.shchoi/G09Files/g09/l202.exe)
                          Input orientation:                          
 ---------------------------------------------------------------------
 Center     Atomic      Atomic             Coordinates (Angstroms)
 Number     Number       Type             X           Y           Z
 ---------------------------------------------------------------------
      1         40           0       -0.102822    0.044305    0.104814
      2         17           0       -0.279499    0.024747   -2.625410
      3         17           0        2.623418   -0.129176   -0.060891
      4          7           0        0.039850    0.101089    2.543268
      5          6           0        1.151625    0.863617    2.528467
      6          6           0        1.007306    2.261678    1.968044
      7          6           0        0.010791    2.338715    0.819299
      8          6           0        0.204356    2.713752   -0.510741
      9          6           0       -1.011965    2.248259   -1.209401
     10          6           0       -1.930990    1.839046   -0.276849
     11          6           0       -1.431997    2.206374    1.033700
     12          6           0        2.358521    0.388070    3.038038
     13          6           0        2.434496   -0.944682    3.441012
     14          6           0        1.318776   -1.767122    3.295074
     15          6           0        0.141041   -1.196317    2.828192
     16          6           0       -1.072786   -1.951273    2.384958
     17          6           0       -0.950173   -2.075502    0.892024
     18          6           0        0.166743   -2.920036    0.275476
     19          6           0        0.104171   -2.632719   -1.060124
     20          6           0       -1.203784   -2.019843   -1.328059
     21          6           0       -1.895032   -1.817928   -0.162235
     22          1           0        0.731317    2.949401    2.777743
     23          1           0        1.984149    2.604966    1.600808
     24          1           0        1.165810    2.877288   -0.981189
     25          1           0       -1.042226    2.026786   -2.265514
     26          1           0       -2.835200    1.269973   -0.454854
     27          1           0       -1.819767    1.746237    1.950395
     28          1           0        3.235332    1.022610    3.090761
     29          1           0        3.371085   -1.350874    3.807979
     30          1           0        1.386184   -2.827801    3.504025
     31          1           0       -1.136261   -2.930166    2.877401
     32          1           0       -1.983478   -1.406850    2.663993
     33          1           0        1.000903   -3.321971    0.826449
     34          1           0        0.844055   -2.841162   -1.812697
     35          1           0       -1.553266   -1.781292   -2.319361
     36          1           0       -2.861507   -1.351569   -0.043657
 ---------------------------------------------------------------------
                    Distance matrix (angstroms):
                    1          2          3          4          5
     1  Zr   0.000000
     2  Cl   2.736005   0.000000
     3  Cl   2.736775   3.876516   0.000000
     4  N    2.443285   5.179098   3.675525   0.000000
     5  C    2.849387   5.414266   3.139520   1.348225   0.000000
     6  C    3.101734   5.268733   3.527687   2.436186   1.513102
     7  C    2.405767   4.159897   3.700140   2.824869   2.529559
     8  C    2.756666   3.454951   3.759849   4.022442   3.681997
     9  C    2.722336   2.735982   4.493026   4.449627   4.535418
    10  C    2.590165   3.396298   4.966202   3.854578   4.280628
    11  C    2.702605   4.413257   4.806174   2.979489   3.272985
    12  C    3.844501   6.258258   3.152946   2.388177   1.393702
    13  C    4.306541   6.716178   3.600564   2.762953   2.397591
    14  C    3.934460   6.388851   3.955686   2.385597   2.745252
    15  C    3.002565   5.604429   3.955727   1.332172   2.313966
    16  C    3.181544   5.444057   4.792091   2.339917   3.590571
    17  C    2.414806   4.151288   4.179328   2.905908   3.966600
    18  C    2.981461   4.157646   3.733268   3.779706   4.512426
    19  C    2.926839   3.107966   3.689552   4.523525   5.118546
    20  C    2.743347   2.591867   4.452843   4.586083   5.360512
    21  C    2.598316   3.474569   4.824784   3.840071   4.869566
    22  H    4.034839   6.226510   4.595163   2.940406   2.142264
    23  H    3.626352   5.444498   3.262735   3.307254   2.141482
    24  H    3.288558   3.595744   3.465602   4.625674   4.046326
    25  H    3.229731   2.172427   4.790144   5.291842   5.398907
    26  H    3.046536   3.576802   5.648835   4.315200   4.996009
    27  H    3.041486   5.125812   5.225355   2.552682   3.153150
    28  H    4.584347   6.784127   3.410859   3.370468   2.164091
    29  H    5.265737   7.523802   4.125495   3.847702   3.386314
    30  H    4.692629   6.962866   4.639175   3.363638   3.825349
    31  H    4.195559   6.304481   5.533017   3.268545   4.443980
    32  H    3.491721   5.738537   5.502811   2.526324   3.873275
    33  H    3.615354   4.975468   3.689697   3.948218   4.520921
    34  H    3.591566   3.183758   3.686437   5.317708   5.715390
    35  H    3.363513   2.231126   5.027411   5.452205   6.149261
    36  H    3.095295   3.902110   5.619514   4.149731   5.256243
                    6          7          8          9         10
     6  C    0.000000
     7  C    1.522691   0.000000
     8  C    2.644517   1.395395   0.000000
     9  C    3.764809   2.273728   1.477920   0.000000
    10  C    3.721793   2.285109   2.319378   1.371756   0.000000
    11  C    2.612710   1.464623   2.306595   2.282473   1.449642
    12  C    2.545796   3.773546   4.758471   5.732470   5.611925
    13  C    3.806213   4.850610   5.828723   6.610545   6.374096
    14  C    4.253146   4.969726   5.983676   6.468843   6.026944
    15  C    3.667151   4.068054   5.142092   5.431084   4.811238
    16  C    4.716944   4.693551   5.637253   5.528037   4.710441
    17  C    4.878593   4.518191   5.122268   4.807776   4.201422
    18  C    5.515568   5.289095   5.688507   5.505042   5.230144
    19  C    5.825854   5.315648   5.375557   5.009191   4.975146
    20  C    5.838205   5.008330   5.005776   4.274058   4.065082
    21  C    5.441033   4.676885   5.006497   4.290716   3.658946
    22  H    1.097609   2.174304   3.338764   4.407715   4.201346
    23  H    1.098604   2.139109   2.763718   4.123253   4.409143
    24  H    3.016964   2.205875   1.082801   2.278259   3.341288
    25  H    4.709434   3.274480   2.259451   1.079510   2.186306
    26  H    4.649599   3.296262   3.365490   2.202401   1.083110
    27  H    2.873731   2.231894   3.330217   3.299830   2.231950
    28  H    2.785657   4.158044   5.001759   6.167102   6.220792
    29  H    4.692904   5.816944   6.723146   7.572251   7.414405
    30  H    5.329689   5.982670   6.944340   7.330340   6.861349
    31  H    5.690084   5.771708   6.717928   6.597991   5.772891
    32  H    4.784060   4.627014   5.643129   5.413579   4.380314
    33  H    5.699159   5.746628   6.233178   6.262890   6.037330
    34  H    6.352923   5.869656   5.741199   5.450779   5.653675
    35  H    6.425261   5.410353   5.154198   4.214535   4.173892
    36  H    5.663056   4.755312   5.113171   4.211713   3.331706
                   11         12         13         14         15
    11  C    0.000000
    12  C    4.657427   0.000000
    13  C    5.538418   1.394414   0.000000
    14  C    5.335657   2.406655   1.393749   0.000000
    15  C    4.156074   2.733411   2.387217   1.389553   0.000000
    16  C    4.386452   4.203916   3.798618   2.565500   1.496593
    17  C    4.311228   4.649948   4.385439   3.319319   2.390075
    18  C    5.423187   4.835204   4.366388   3.431380   3.080297
    19  C    5.491879   5.567961   5.342294   4.603507   4.145312
    20  C    4.846741   6.127876   6.094021   5.272622   4.445354
    21  C    4.223703   5.762021   5.700066   4.720607   3.670782
    22  H    2.876405   3.045646   4.301701   4.781038   4.187833
    23  H    3.485763   2.668410   4.023576   4.735864   4.399235
    24  H    3.355369   4.875750   5.981043   6.315090   5.670607
    25  H    3.327009   6.509848   7.313115   7.133597   6.142829
    26  H    2.249804   6.320822   6.917526   6.367215   5.071389
    27  H    1.096550   4.526110   5.249927   4.899214   3.643338
    28  H    5.236102   1.083614   2.152732   3.390802   3.816703
    29  H    6.589403   2.154535   1.084829   2.155993   3.378913
    30  H    6.275951   3.391815   2.156169   1.083164   2.160757
    31  H    5.465412   4.821825   4.124331   2.748514   2.154102
    32  H    4.002171   4.713237   4.509529   3.381263   2.141230
    33  H    6.043554   4.527544   3.813480   2.934742   3.043804
    34  H    6.225753   6.020894   5.807546   5.241016   4.973690
    35  H    5.211449   6.979250   7.055782   6.306402   5.450704
    36  H    3.982858   6.306494   6.352646   5.366057   4.157753
                   16         17         18         19         20
    16  C    0.000000
    17  C    1.503104   0.000000
    18  C    2.631511   1.529991   0.000000
    19  C    3.703808   2.287578   1.367587   0.000000
    20  C    3.715960   2.235214   2.293473   1.469066   0.000000
    21  C    2.679937   1.438945   2.378476   2.338140   1.370306
    22  H    5.236953   5.624322   6.405496   6.803132   6.730202
    23  H    5.542477   5.569506   5.965326   6.168324   6.334828
    24  H    6.297401   5.702318   6.015505   5.611905   5.451347
    25  H    6.119868   5.177575   5.691158   4.947543   4.156938
    26  H    4.641882   4.069350   5.205884   4.923136   3.774506
    27  H    3.797157   4.059806   5.340943   5.651550   5.031009
    28  H    5.282237   5.652539   5.734678   6.355741   6.963350
    29  H    4.704621   5.263188   5.020822   6.001190   6.910560
    30  H    2.840272   3.584281   3.452401   4.744794   5.541639
    31  H    1.097615   2.169516   2.909972   4.138991   4.303386
    32  H    1.097095   2.157473   3.552210   4.441856   4.113412
    33  H    2.933931   2.316179   1.077472   2.199626   3.346354
    34  H    4.699627   3.334817   2.196688   1.075752   2.259001
    35  H    4.731847   3.280743   3.314868   2.248934   1.077833
    36  H    3.075278   2.247837   3.425234   3.386709   2.200982
                   21         22         23         24         25
    21  C    0.000000
    22  H    6.186163   0.000000
    23  H    6.141527   1.753111   0.000000
    24  H    5.664317   3.784647   2.722232   0.000000
    25  H    4.464627   5.425046   4.943853   2.692260   0.000000
    26  H    3.241092   5.098060   5.406855   4.343797   2.658197
    27  H    4.143928   2.939412   3.915278   4.334412   4.296181
    28  H    6.706063   3.174995   2.507842   4.929860   6.927882
    29  H    6.611560   5.149963   4.737495   6.758455   8.232449
    30  H    5.022716   5.859385   5.787465   7.260423   7.921601
    31  H    3.324483   6.169853   6.481075   7.342667   7.143514
    32  H    2.857337   5.134197   5.741698   6.446643   6.080778
    33  H    3.409703   6.573457   6.057639   6.459532   6.507212
    34  H    3.357622   7.390228   6.527797   5.787538   5.240231
    35  H    2.184340   7.319785   6.864422   5.557557   3.842593
    36  H    1.079641   6.274315   6.468293   5.914514   4.433928
                   26         27         28         29         30
    26  H    0.000000
    27  H    2.653894   0.000000
    28  H    7.034483   5.232409   0.000000
    29  H    7.972362   6.323579   2.483195   0.000000
    30  H    7.091161   5.797733   4.291364   2.492696   0.000000
    31  H    5.624188   4.816146   5.897524   4.865830   2.601127
    32  H    4.197383   3.236971   5.772382   5.475690   3.752249
    33  H    6.119099   5.908143   5.384716   4.288649   2.749920
    34  H    5.681733   6.503924   6.685121   6.340255   5.344306
    35  H    3.798679   5.544844   7.749965   7.872661   6.606616
    36  H    2.653726   3.828559   7.254843   7.326684   5.727842
                   31         32         33         34         35
    31  H    0.000000
    32  H    1.756078   0.000000
    33  H    2.987873   3.993843   0.000000
    34  H    5.091816   5.485704   2.687167   0.000000
    35  H    5.338552   5.015886   4.335158   2.669678   0.000000
    36  H    3.741793   2.846991   4.422417   4.368018   2.659885
                   36
    36  H    0.000000
 Stoichiometry    C17H15Cl2NZr
 Framework group  C1[X(C17H15Cl2NZr)]
 Deg. of freedom   102
 Full point group                 C1      NOp   1
 RotChk:  IX=3 Diff= 1.37D+00
 Largest Abelian subgroup         C1      NOp   1
 Largest concise Abelian subgroup C1      NOp   1
                         Standard orientation:                         
 ---------------------------------------------------------------------
 Center     Atomic      Atomic             Coordinates (Angstroms)
 Number     Number       Type             X           Y           Z
 ---------------------------------------------------------------------
      1         40           0        0.492241    0.033756   -0.061221
      2         17           0        2.951556   -0.363221    1.070105
      3         17           0       -0.619583    0.297944    2.425541
      4          7           0       -1.689977    0.424223   -1.088401
      5          6           0       -2.030685    1.353376   -0.172812
      6          6           0       -1.210220    2.624650   -0.159447
      7          6           0        0.254628    2.387096   -0.500588
      8          6           0        1.400481    2.616355    0.262031
      9          6           0        2.467626    1.869128   -0.435893
     10          6           0        1.987870    1.434674   -1.645355
[...]
     18          6           0        0.033356   -2.666329    0.145248
     19          6           0       -0.157337   -2.499929   -1.212761
     20          6           0       -1.445557   -1.910605   -1.410940
     21          6           0       -1.990701   -1.598971   -0.176371
     22          1           0        0.700540    2.981786    2.727212
     23          1           0        1.975097    2.724550    1.559461
     24          1           0        0.996007    2.640077   -1.052682
     25          1           0       -1.157291    1.553551   -2.154259
     26          1           0       -2.744463    0.633820   -0.200298
     27          1           0       -1.615135    1.286637    2.123405
     28          1           0        3.296881    1.057580    3.148035
     29          1           0        3.318774   -1.323313    3.857857
     30          1           0        1.287690   -2.709684    3.481529
     31          1           0       -1.178379   -2.706996    2.818180
     32          1           0       -1.989930   -1.165437    2.570103
     33          1           0        0.900426   -3.058983    0.650749
     34          1           0        0.498424   -2.800619   -2.012333
     35          1           0       -1.906586   -1.766105   -2.373633
     36          1           0       -2.947629   -1.128530    0.015331
 ---------------------------------------------------------------------
                    Distance matrix (angstroms):
                    1          2          3          4          5
     1  Zr   0.000000
     2  Cl   2.677375   0.000000
     3  Cl   2.637107   3.570522   0.000000
     4  N    2.452986   5.096923   3.397779   0.000000
     5  C    2.795777   5.121420   2.808307   1.333651   0.000000
     6  C    2.916234   4.864225   3.302326   2.303410   1.469959
     7  C    1.997603   3.877518   3.515041   2.426789   2.339370
     8  C    2.124722   2.872373   3.705074   3.630501   3.519205
     9  C    2.232469   2.744285   4.507177   4.033657   4.360939
    10  C    2.302019   3.797429   4.871159   3.377174   4.069118
    11  C    2.397167   4.512045   4.548014   2.425270   3.004950
    12  C    3.780199   5.845953   2.745374   2.395125   1.387861
    13  C    4.271827   6.384847   3.204459   2.765595   2.372024
    14  C    3.949456   6.247973   3.629084   2.376870   2.705658
    15  C    3.056485   5.602681   3.688842   1.324722   2.284815
    16  C    3.337266   5.738142   4.654233   2.322810   3.561233
    17  C    2.598195   4.558282   4.222987   2.884265   3.967483
    18  C    2.967113   4.284517   3.817673   3.711701   4.480927
    19  C    3.063078   3.480635   4.159783   4.581407   5.259368
    20  C    3.089453   3.568996   4.967300   4.682421   5.542480
    21  C    2.901344   4.310027   5.061107   3.830048   4.910138
    22  H    3.866558   5.855205   4.356196   2.813816   2.117929
    23  H    3.392118   4.816504   3.110306   3.228433   2.146156
    24  H    2.690396   2.614073   3.527754   4.331050   3.950520
    25  H    2.838759   2.326844   4.954805   4.945353   5.276912
    26  H    2.973638   4.343657   5.605942   3.907541   4.826948
    27  H    2.971129   5.384498   4.918574   2.036121   2.900268
    28  H    4.483659   6.241856   3.016841   3.367343   2.157934
    29  H    5.219536   7.130153   3.743313   3.845262   3.360727
    30  H    4.727276   6.885945   4.359830   3.348073   3.782867
    31  H    4.344718   6.624673   5.368115   3.241640   4.390998
    32  H    3.683448   6.139056   5.377143   2.529459   3.858344
    33  H    3.485222   4.827761   3.574895   3.843915   4.426850
    34  H    3.698516   3.396077   4.316219   5.413443   5.916949
    35  H    3.780777   3.617171   5.714181   5.596080   6.408907
    36  H    3.456206   4.917190   5.852782   4.136825   5.295466
                    6          7          8          9         10
     6  C    0.000000
     7  C    1.500276   0.000000
     8  C    2.631401   1.401016   0.000000
     9  C    3.743408   2.269846   1.434861   0.000000
    10  C    3.701029   2.276692   2.294974   1.390703   0.000000
    11  C    2.568938   1.441529   2.294968   2.280035   1.430805
    12  C    2.550044   3.631277   4.658338   5.580279   5.383225
    13  C    3.771223   4.607456   5.615892   6.317031   5.971157
    14  C    4.162716   4.612771   5.625737   6.017830   5.453394
    15  C    3.544684   3.651492   4.704591   4.913625   4.178923
    16  C    4.574090   4.236651   5.109645   4.889352   3.927902
    17  C    4.762517   4.077749   4.555162   4.107104   3.384624
    18  C    5.368750   4.803269   5.062951   4.734258   4.386104
    19  C    5.861557   5.034032   4.910676   4.363013   4.297856
    20  C    5.924998   4.825445   4.625201   3.709689   3.476147
    21  C    5.369588   4.325548   4.485756   3.611940   2.877585
    22  H    1.099029   2.177538   3.352472   4.389087   4.181335
    23  H    1.097971   2.165703   2.815365   4.152480   4.433325
    24  H    3.019172   2.215904   1.081856   2.237717   3.323723
    25  H    4.711315   3.283053   2.220403   1.076100   2.205355
    26  H    4.658148   3.303612   3.341976   2.219137   1.084572
    27  H    2.847427   2.219771   3.322107   3.308819   2.227187
    28  H    2.835371   4.119185   5.026264   6.131269   6.106511
    29  H    4.678057   5.604856   6.552970   7.305350   7.022737
    30  H    5.235508   5.605847   6.555790   6.825576   6.215817
    31  H    5.537614   5.313339   6.191804   5.950317   4.979164
    32  H    4.640139   4.188812   5.124762   4.790717   3.610505
    33  H    5.504927   5.219998   5.592665   5.497332   5.200328
    34  H    6.470956   5.686044   5.382532   4.911663   5.094597
    35  H    6.618927   5.387422   4.947867   3.847500   3.804206
    36  H    5.598373   4.459273   4.659936   3.630882   2.633283
                   11         12         13         14         15
    11  C    0.000000
    12  C    4.386496   0.000000
    13  C    5.108568   1.386219   0.000000
    14  C    4.752360   2.395274   1.391688   0.000000
    15  C    3.506603   2.735404   2.393563   1.390669   0.000000
    16  C    3.648024   4.198095   3.793348   2.556938   1.481187
    17  C    3.613341   4.686707   4.423552   3.343090   2.382139
    18  C    4.701147   4.882367   4.451458   3.502755   3.064140
    19  C    4.978436   5.790372   5.569550   4.771908   4.225245
    20  C    4.446552   6.357106   6.296892   5.412324   4.529734
    21  C    3.633818   5.833712   5.756596   4.742695   3.656604
    22  H    2.863114   3.075949   4.291069   4.701622   4.064766
    23  H    3.482096   2.760944   4.096946   4.747649   4.355281
    24  H    3.343133   4.869539   5.892512   6.091197   5.358136
    25  H    3.322698   6.413458   7.082317   6.746880   5.693162
    26  H    2.238512   6.102460   6.505009   5.778038   4.449747
    27  H    1.091772   4.218365   4.770486   4.279187   2.983123
    28  H    5.082118   1.078808   2.149592   3.381481   3.813612
    29  H    6.177415   2.144096   1.079743   2.151343   3.379669
    30  H    5.643269   3.377802   2.150850   1.079283   2.153030
    31  H    4.726023   4.785063   4.085098   2.709789   2.123780
    32  H    3.274312   4.713233   4.507137   3.376330   2.140993
    33  H    5.296077   4.513822   3.859419   2.986313   3.002057
    34  H    5.815204   6.318312   6.101596   5.450294   5.081558
    35  H    4.993682   7.283762   7.310322   6.471626   5.557701
    36  H    3.464806   6.361307   6.378893   5.353478   4.120987
                   16         17         18         19         20
    16  C    0.000000
    17  C    1.498438   0.000000
    18  C    2.604473   1.463022   0.000000
    19  C    3.717142   2.281964   1.381391   0.000000
    20  C    3.735602   2.271255   2.275966   1.430415   0.000000
    21  C    2.642054   1.431662   2.310735   2.290645   1.385084
    22  H    5.067783   5.478316   6.246029   6.805038   6.757627
    23  H    5.466867   5.515258   5.901859   6.287104   6.481421
    24  H    5.899665   5.265740   5.524462   5.270246   5.176707
    25  H    5.543020   4.530168   4.951036   4.279839   3.554715
    26  H    3.825904   3.216186   4.327431   4.187921   3.102726
    27  H    3.076643   3.469022   4.717687   5.252929   4.768932
    28  H    5.271964   5.690201   5.790926   6.603335   7.217000
    29  H    4.694361   5.304473   5.136257   6.259309   7.127691
    30  H    2.826184   3.608996   3.564549   4.916143   5.660867
    31  H    1.098960   2.181984   2.935050   4.163398   4.311737
    32  H    1.099166   2.137625   3.496611   4.410139   4.086602
    33  H    2.905238   2.243388   1.077738   2.214514   3.327607
    34  H    4.720451   3.329325   2.211216   1.076918   2.221004
    35  H    4.748124   3.317831   3.304322   2.223959   1.077129
    36  H    3.009484   2.237373   3.356780   3.342854   2.214071
                   21         22         23         24         25
    21  C    0.000000
    22  H    6.054495   0.000000
    23  H    6.118292   1.747658   0.000000
    24  H    5.259076   3.806792   2.790886   0.000000
    25  H    3.813792   5.414809   4.997480   2.651547   0.000000
    26  H    2.356710   5.094243   5.453636   4.329289   2.680109
    27  H    3.709010   2.932654   3.908374   4.328671   4.310368
    28  H    6.787301   3.258934   2.655084   5.044239   6.942619
    29  H    6.673943   5.164048   4.844923   6.724366   8.028514
    30  H    5.036046   5.771185   5.804979   7.018839   7.477648
    31  H    3.294681   5.991732   6.405503   6.950016   6.548118
    32  H    2.780480   4.945985   5.645780   6.043371   5.514143
    33  H    3.342809   6.390817   5.952304   5.948957   5.777346
    34  H    3.318201   7.479328   6.742831   5.547043   4.660507
    35  H    2.205215   7.440310   7.120582   5.439154   3.410232
    36  H    1.083409   6.128469   6.439238   5.558355   3.886642
                   26         27         28         29         30
    26  H    0.000000
    27  H    2.664798   0.000000
    28  H    6.920169   5.022971   0.000000
    29  H    7.553928   5.844966   2.484547   0.000000
    30  H    6.402588   5.122644   4.282563   2.487761   0.000000
    31  H    4.767062   4.077080   5.857370   4.818702   2.553729
    32  H    3.388476   2.520452   5.764215   5.464941   3.736066
    33  H    5.257973   5.232702   5.378245   4.375671   2.878419
    34  H    5.059165   6.186851   7.024703   6.678019   5.551012
    35  H    3.344407   5.443118   8.095560   8.144442   6.736221
    36  H    1.787078   3.471678   7.320301   7.353281   5.696709
                   31         32         33         34         35
    31  H    0.000000
    32  H    1.759706   0.000000
    33  H    3.023752   3.952669   0.000000
    34  H    5.114126   5.464837   2.705617   0.000000
    35  H    5.326395   4.980791   4.324088   2.642883   0.000000
    36  H    3.671207   2.728627   4.351772   4.333888   2.682801
                   36
    36  H    0.000000
 Stoichiometry    C17H15Cl2NZr
 Framework group  C1[X(C17H15Cl2NZr)]
 Deg. of freedom   102
 Full point group                 C1      NOp   1
 RotChk:  IX=3 Diff= 5.00D-01
 Largest Abelian subgroup         C1      NOp   1
 Largest concise Abelian subgroup C1      NOp   1
                         Standard orientation:                         
 ---------------------------------------------------------------------
 Center     Atomic      Atomic             Coordinates (Angstroms)
 Number     Number       Type             X           Y           Z
 ---------------------------------------------------------------------
      1         40           0        0.539399    0.272589   -0.001377
      2         17           0        2.599107    1.044702    1.524987
      3         17           0       -0.930018    0.997224    2.065034
      4          7           0       -1.635657   -0.076468   -1.080465
      5          6           0       -2.112554    1.015844   -0.482092
      6          6           0       -1.411352    2.213200   -0.967305
      7          6           0       -0.020719    1.726916   -1.251025
      8          6           0        1.208729    2.152436   -0.731182
      9          6           0        2.187427    1.205643   -1.183466
     10          6           0        1.573161    0.315525   -2.057777
     11          6           0        0.253673    0.801733   -2.321889
     12          6           0       -3.145766    0.987443    0.444096
     13          6           0       -3.614843   -0.254517    0.842979
     14          6           0       -3.022938   -1.401599    0.322742
     15          6           0       -2.026299   -1.262078   -0.637053
     16          6           0       -1.168163   -2.350368   -1.159683
     17          6           0        0.124528   -2.259945   -0.407293
     18          6           0        0.229379   -2.490832    1.033585
     19          6           0        1.549699   -2.270571    1.374878
     20          6           0        2.321014   -2.245550    0.170497
     21          6           0        1.462249   -2.322437   -0.913509
     22          1           0       -1.914652    2.613154   -1.858703
     23          1           0       -1.419441    3.032015   -0.235857
     24          1           0        1.344975    2.837747    0.094771
     25          1           0        3.157867    1.088930   -0.733338
     26          1           0        1.987091   -0.609351   -2.444509
     27          1           0       -0.533147    0.192490   -2.771005
     28          1           0       -3.549616    1.893950    0.867152
     29          1           0       -4.397219   -0.329015    1.583373
     30          1           0       -3.315545   -2.378005    0.677516
     31          1           0       -1.675985   -3.317607   -1.040191
     32          1           0       -0.981733   -2.229363   -2.236144
     33          1           0       -0.625399   -2.544634    1.687786
     34          1           0        1.969972   -2.185724    2.362767
     35          1           0        3.396667   -2.199423    0.138092
     36          1           0        1.731929   -2.311249   -1.962757
 ---------------------------------------------------------------------
 Rotational constants (GHZ):      0.3816038      0.2954247      0.2582151
 Leave Link  202 at Mon Sep 15 12:51:59 2025, MaxMem=    33554432 cpu:         0.0
 (Enter /appl/g09.shchoi/G09Files/g09/l301.exe)
 Standard basis: SDD (6D, 10F)
 Ernie: Thresh=  0.10000D-02 Tol=  0.10000D-05 Strict=F.
 There are   285 symmetry adapted cartesian basis functions of A   symmetry.
 There are   285 symmetry adapted basis functions of A   symmetry.
   285 basis functions,   629 primitive gaussians,   285 cartesian basis functions
    85 alpha electrons       85 beta electrons
       nuclear repulsion energy      2193.5618541041 Hartrees.
 IExCor=    0 DFT=F Ex=HF Corr=None ExCW=0 ScaHFX=  1.000000
 ScaDFX=  1.000000  1.000000  1.000000  1.000000 ScalE2=  1.000000  1.000000
 IRadAn=      0 IRanWt=     -1 IRanGd=            0 ICorTp=0 IEmpDi=  4
 NAtoms=   36 NActive=   36 NUniq=   36 SFac= 1.00D+00 NAtFMM=   60 NAOKFM=F Big=F
 Integral buffers will be    131072 words long.
 Raffenetti 1 integral format.
 Two-electron integral symmetry is turned on.
 Leave Link  301 at Mon Sep 15 12:51:59 2025, MaxMem=    33554432 cpu:         0.0
 (Enter /appl/g09.shchoi/G09Files/g09/l402.exe)
 External calculation of energy and first derivatives.
 Running external command "/home/rxn_grp/programs/xtb-gaussian R"
         input file       "/home/rxn_grp/scratch/Gau-2488808.EIn"
         output file      "/home/rxn_grp/scratch/Gau-2488808.EOu"
         message file     "/home/rxn_grp/scratch/Gau-2488808.EMs"
         fchk file        "/home/rxn_grp/scratch/Gau-2488808.EFC"
         mat. el file     "/home/rxn_grp/scratch/Gau-2488808.EUF"

 ExternalExternalExternalExternalExternalExternalExternalExternalExternalExternal
 Output from external command:
 "/home/rxn_grp/programs/xtb-gaussian R /home/rxn_grp/scratch/Gau-2488808.EIn /home/rxn_grp/scratch/Gau-2488808.EOu /home/rxn_grp/scratch/Gau-2488808.EMs /home/rxn_grp/scratch/Gau-2488808.EFC /home/rxn_grp/scratch/Gau-2488808.EUF"
 normal termination of xtb
  
 ------- xtb command was ---------
 ?> xtb ./Gau-2488808.EIn  --grad --charge 0  >/dev/null 2>Gau-2488808.EMs
 ---------------------------------
              Control returned to Gaussian.
 ~~~~~~~~~~~~~~~~~~~~~~~~~~~~~~~~~~~~~~~~~~~~~~~~~~~~~~~~~~~~~~~~~~~~~~~~~
 ExternalExternalExternalExternalExternalExternalExternalExternalExternalExternal

 Recovered energy= -57.7455784224     dipole=     -2.581010803780     -0.319210391130     -2.736252705860
 Energy=    -57.7455784     NIter=   0.
 Dipole moment=      -2.581011      -0.319210      -2.736253
 Leave Link  402 at Mon Sep 15 12:51:59 2025, MaxMem=    33554432 cpu:         0.0
 (Enter /appl/g09.shchoi/G09Files/g09/l716.exe)
 Dipole        =-2.58101080D+00-3.19210391D-01-2.73625271D+00
 ***** Axes restored to original set *****
 -------------------------------------------------------------------
 Center     Atomic                   Forces (Hartrees/Bohr)
 Number     Number              X              Y              Z
 -------------------------------------------------------------------
      1       40           0.056035775   -0.180140395   -0.041479513
      2       17           0.007187368   -0.020727226    0.019117555
      3       17          -0.030805658    0.000552381   -0.016925003
      4        7           0.029915575   -0.017658880   -0.002326570
      5        6           0.001091980   -0.004557868    0.021200602
      6        6           0.008318670    0.031968071   -0.007363694
      7        6          -0.031376644    0.111276853    0.048959163
      8        6          -0.005068375    0.025959591   -0.018479579
      9        6           0.000501535    0.019340366   -0.013189346
     10        6          -0.020845773    0.017044143    0.022283190
     11        6           0.001028108   -0.026733813   -0.012007178
     12        6          -0.000976676   -0.001278942    0.007788540
     13        6          -0.002857802   -0.001984295    0.002309932
     14        6           0.002250753   -0.000221510    0.001088459
     15        6           0.005845437   -0.008463057    0.006481797
     16        6          -0.018209157   -0.016873471    0.013649283
     17        6           0.009645936   -0.018433380   -0.016428716
     18        6           0.002821218    0.043957540    0.016331641
     19        6          -0.015608310    0.004331725   -0.010478987
     20        6           0.016091134   -0.000162696   -0.008170411
     21        6           0.010185583    0.015475637    0.010624776
     22        1          -0.003691704   -0.000681365   -0.000161240
     23        1           0.001748103   -0.003001582   -0.001978526
     24        1           0.001719475    0.008897260   -0.002542733
     25        1          -0.008614673    0.008947956   -0.005012438
     26        1          -0.005111046    0.019236820   -0.002740943
     27        1          -0.010140520    0.015815240   -0.005030479
     28        1          -0.001203228    0.000210797   -0.001385839
     29        1          -0.000861907    0.000096931   -0.000200833
     30        1          -0.000863861    0.000307913    0.000438952
     31        1           0.000247840   -0.001766550   -0.003722329
     32        1           0.002355657    0.001127318   -0.000340442
     33        1           0.003015563   -0.003925349   -0.000165021
     34        1          -0.000757282   -0.005912835   -0.000056632
     35        1          -0.001399444   -0.000385311   -0.000527171
     36        1          -0.001613654   -0.011638017    0.000439736
 -------------------------------------------------------------------
 Cartesian Forces:  Max     0.180140395 RMS     0.025105068
 Leave Link  716 at Mon Sep 15 12:51:59 2025, MaxMem=    33554432 cpu:         0.0
 (Enter /appl/g09.shchoi/G09Files/g09/l103.exe)
