 Entering Gaussian System, Link 0=g09
 Input=final_relax_2.com
 Output=final_relax_2.log
 Initial command:
 /appl/g09.shchoi/G09Files/g09/l1.exe "/home/rxn_grp/scratch/Gau-2484786.inp" -scrdir="/home/rxn_grp/scratch/"
 Entering Link 1 = /appl/g09.shchoi/G09Files/g09/l1.exe PID=   2484788.
  
 Copyright (c) 1988,1990,1992,1993,1995,1998,2003,2009,2013,
            Gaussian, Inc.  All Rights Reserved.
  
 This is part of the Gaussian(R) 09 program.  It is based on
 the Gaussian(R) 03 system (copyright 2003, Gaussian, Inc.),
 the Gaussian(R) 98 system (copyright 1998, Gaussian, Inc.),
 the Gaussian(R) 94 system (copyright 1995, Gaussian, Inc.),
 the Gaussian 92(TM) system (copyright 1992, Gaussian, Inc.),
 the Gaussian 90(TM) system (copyright 1990, Gaussian, Inc.),
 the Gaussian 88(TM) system (copyright 1988, Gaussian, Inc.),
 the Gaussian 86(TM) system (copyright 1986, Carnegie Mellon
 University), and the Gaussian 82(TM) system (copyright 1983,
 Carnegie Mellon University). Gaussian is a federally registered
 trademark of Gaussian, Inc.
  
 This software contains proprietary and confidential information,
 including trade secrets, belonging to Gaussian, Inc.
  
 This software is provided under written license and may be
 used, copied, transmitted, or stored only in accord with that
 written license.
  
 The following legend is applicable only to US Government
 contracts under FAR:
  
                    RESTRICTED RIGHTS LEGEND
  
 Use, reproduction and disclosure by the US Government is
 subject to restrictions as set forth in subparagraphs (a)
 and (c) of the Commercial Computer Software - Restricted
 Rights clause in FAR 52.227-19.
  
 Gaussian, Inc.
 340 Quinnipiac St., Bldg. 40, Wallingford CT 06492
  
  
 ---------------------------------------------------------------
 Warning -- This program may not be used in any manner that
 competes with the business of Gaussian, Inc. or will provide
 assistance to any competitor of Gaussian, Inc.  The licensee
 of this program is prohibited from giving any competitor of
 Gaussian, Inc. access to this program.  By using this program,
 the user acknowledges that Gaussian, Inc. is engaged in the
 business of creating and licensing software in the field of
 computational chemistry and represents and warrants to the
 licensee that it is not a competitor of Gaussian, Inc. and that
 it will not use this program in any manner prohibited above.
 ---------------------------------------------------------------
  

 Cite this work as:
 Gaussian 09, Revision D.01,
 M. J. Frisch, G. W. Trucks, H. B. Schlegel, G. E. Scuseria, 
 M. A. Robb, J. R. Cheeseman, G. Scalmani, V. Barone, B. Mennucci, 
 G. A. Petersson, H. Nakatsuji, M. Caricato, X. Li, H. P. Hratchian, 
 A. F. Izmaylov, J. Bloino, G. Zheng, J. L. Sonnenberg, M. Hada, 
 M. Ehara, K. Toyota, R. Fukuda, J. Hasegawa, M. Ishida, T. Nakajima, 
 Y. Honda, O. Kitao, H. Nakai, T. Vreven, J. A. Montgomery, Jr., 
 J. E. Peralta, F. Ogliaro, M. Bearpark, J. J. Heyd, E. Brothers, 
 K. N. Kudin, V. N. Staroverov, T. Keith, R. Kobayashi, J. Normand, 
 K. Raghavachari, A. Rendell, J. C. Burant, S. S. Iyengar, J. Tomasi, 
 M. Cossi, N. Rega, J. M. Millam, M. Klene, J. E. Knox, J. B. Cross, 
 V. Bakken, C. Adamo, J. Jaramillo, R. Gomperts, R. E. Stratmann, 
 O. Yazyev, A. J. Austin, R. Cammi, C. Pomelli, J. W. Ochterski, 
 R. L. Martin, K. Morokuma, V. G. Zakrzewski, G. A. Voth, 
 P. Salvador, J. J. Dannenberg, S. Dapprich, A. D. Daniels, 
 O. Farkas, J. B. Foresman, J. V. Ortiz, J. Cioslowski, 
 and D. J. Fox, Gaussian, Inc., Wallingford CT, 2013.
 
 ******************************************
 Gaussian 09:  ES64L-G09RevD.01 24-Apr-2013
                15-Sep-2025 
 ******************************************
 -------------------------------------------------------------------
 #p external='/home/rxn_grp/programs/xtb-gaussian' /sdd opt(nomicro)
 -------------------------------------------------------------------
 1/14=-1,18=20,19=15,26=1,38=1/1,3;
 2/9=110,12=2,17=6,18=5,40=1/2;
 3/5=17,6=7,11=9,16=1,25=1,30=1,41=9900000,43=2,71=1/1;
 4/20=17,22=1,24=3,113=1,114=1/2;
 6/7=2,8=2,9=2,10=2/1;
 7/44=-1/16;
 1/14=-1,18=20,19=15,26=1/3(2);
 2/9=110/2;
 99//99;
 2/9=110/2;
 3/5=17,6=7,11=9,16=1,25=1,30=1,41=9900000,43=2,71=1/1;
 4/16=2,20=17,22=1,24=3,113=1,114=1/2;
 7/44=-1/16;
 1/14=-1,18=20,19=15,26=1/3(-4);
 2/9=110/2;
 6/7=2,8=2,9=2,10=2/1;
 99//99;
 Leave Link    1 at Mon Sep 15 12:50:20 2025, MaxMem=           0 cpu:         0.0
 (Enter /appl/g09.shchoi/G09Files/g09/l101.exe)
 -
 R
 -
 Symbolic Z-matrix:
 Charge =  0 Multiplicity = 1
 Zr                    0.        0.        0. 
 Cl                    0.        0.       -2.216 
 Cl                    2.216     0.        0. 
 N                     0.10077   0.04493   1.9649 
 C                     0.91834   1.0401    2.46126 
 C                     0.47645   2.3995    2.07013 
 C                    -0.42043   2.19621   0.9297 
 C                    -1.66953   1.70108   0.8521 
 C                    -2.10147   1.78552  -0.523 
 C                    -1.15131   2.39013  -1.25337 
 C                    -0.07043   2.68458  -0.3623 
 C                     1.96324   0.89697   3.37765 
 C                     2.15891  -0.33889   3.96342 
 C                     1.25413  -1.34436   3.67805 
 C                     0.24615  -1.08731   2.74564 
 C                    -0.77698  -2.10238   2.42398 
 C                    -0.80833  -2.02584   0.96227 
 C                     0.18804  -2.68224   0.16812 
 C                    -0.31953  -2.69751  -1.06801 
 C                    -1.63357  -2.07328  -1.06463 
 C                    -1.9398   -1.66098   0.17216 
 H                    -0.05904   2.87174   2.90274 
 H                     1.33179   3.03586   1.81741 
 H                    -2.26079   1.30449   1.66024 
 H                    -3.06624   1.45861  -0.87922 
 H                    -1.19754   2.64684  -2.30021 
 H                     0.76842   3.31702  -0.60559 
 H                     2.57608   1.74662   3.65817 
 H                     2.96429  -0.49763   4.67218 
 H                     1.33418  -2.31288   4.15894 
 H                    -1.73503  -1.83065   2.88015 
 H                    -0.50354  -3.10306   2.77673 
 H                     1.11418  -3.11766   0.50182 
 H                     0.12548  -3.15869  -1.93862 
 H                    -2.27314  -2.01995  -1.9339 
 H                    -2.85813  -1.21784   0.51164 
 
 NAtoms=     36 NQM=       36 NQMF=       0 NMMI=      0 NMMIF=      0
                NMic=       0 NMicF=      0.
                    Isotopes and Nuclear Properties:
 (Nuclear quadrupole moments (NQMom) in fm**2, nuclear magnetic moments (NMagM)
  in nuclear magnetons)

  Atom         1           2           3           4           5           6           7           8           9          10
 IAtWgt=          90          35          35          14          12          12          12          12          12          12
 AtmWgt=  89.9043000  34.9688527  34.9688527  14.0030740  12.0000000  12.0000000  12.0000000  12.0000000  12.0000000  12.0000000
 NucSpn=           0           3           3           2           0           0           0           0           0           0
 AtZEff=   0.0000000   0.0000000   0.0000000   0.0000000   0.0000000   0.0000000   0.0000000   0.0000000   0.0000000   0.0000000
 NQMom=    0.0000000  -8.1650000  -8.1650000   2.0440000   0.0000000   0.0000000   0.0000000   0.0000000   0.0000000   0.0000000
 NMagM=    0.0000000   0.8218740   0.8218740   0.4037610   0.0000000   0.0000000   0.0000000   0.0000000   0.0000000   0.0000000
 AtZNuc=  40.0000000  17.0000000  17.0000000   7.0000000   6.0000000   6.0000000   6.0000000   6.0000000   6.0000000   6.0000000

  Atom        11          12          13          14          15          16          17          18          19          20
 IAtWgt=          12          12          12          12          12          12          12          12          12          12
 AtmWgt=  12.0000000  12.0000000  12.0000000  12.0000000  12.0000000  12.0000000  12.0000000  12.0000000  12.0000000  12.0000000
 NucSpn=           0           0           0           0           0           0           0           0           0           0
 AtZEff=   0.0000000   0.0000000   0.0000000   0.0000000   0.0000000   0.0000000   0.0000000   0.0000000   0.0000000   0.0000000
 NQMom=    0.0000000   0.0000000   0.0000000   0.0000000   0.0000000   0.0000000   0.0000000   0.0000000   0.0000000   0.0000000
 NMagM=    0.0000000   0.0000000   0.0000000   0.0000000   0.0000000   0.0000000   0.0000000   0.0000000   0.0000000   0.0000000
 AtZNuc=   6.0000000   6.0000000   6.0000000   6.0000000   6.0000000   6.0000000   6.0000000   6.0000000   6.0000000   6.0000000

  Atom        21          22          23          24          25          26          27          28          29          30
 IAtWgt=          12           1           1           1           1           1           1           1           1           1
 AtmWgt=  12.0000000   1.0078250   1.0078250   1.0078250   1.0078250   1.0078250   1.0078250   1.0078250   1.0078250   1.0078250
 NucSpn=           0           1           1           1           1           1           1           1           1           1
 AtZEff=   0.0000000   0.0000000   0.0000000   0.0000000   0.0000000   0.0000000   0.0000000   0.0000000   0.0000000   0.0000000
 NQMom=    0.0000000   0.0000000   0.0000000   0.0000000   0.0000000   0.0000000   0.0000000   0.0000000   0.0000000   0.0000000
 NMagM=    0.0000000   2.7928460   2.7928460   2.7928460   2.7928460   2.7928460   2.7928460   2.7928460   2.7928460   2.7928460
 AtZNuc=   6.0000000   1.0000000   1.0000000   1.0000000   1.0000000   1.0000000   1.0000000   1.0000000   1.0000000   1.0000000

  Atom        31          32          33          34          35          36
 IAtWgt=           1           1           1           1           1           1
 AtmWgt=   1.0078250   1.0078250   1.0078250   1.0078250   1.0078250   1.0078250
 NucSpn=           1           1           1           1           1           1
 AtZEff=   0.0000000   0.0000000   0.0000000   0.0000000   0.0000000   0.0000000
 NQMom=    0.0000000   0.0000000   0.0000000   0.0000000   0.0000000   0.0000000
 NMagM=    2.7928460   2.7928460   2.7928460   2.7928460   2.7928460   2.7928460
 AtZNuc=   1.0000000   1.0000000   1.0000000   1.0000000   1.0000000   1.0000000
 Leave Link  101 at Mon Sep 15 12:50:20 2025, MaxMem=    33554432 cpu:         0.0
 (Enter /appl/g09.shchoi/G09Files/g09/l103.exe)

 GradGradGradGradGradGradGradGradGradGradGradGradGradGradGradGradGradGrad
 Berny optimization.
 Initialization pass.
                           ----------------------------
                           !    Initial Parameters    !
                           ! (Angstroms and Degrees)  !
 --------------------------                            --------------------------
 ! Name  Definition              Value          Derivative Info.                !
 --------------------------------------------------------------------------------
 ! R1    R(1,2)                  2.216          estimate D2E/DX2                !
 ! R2    R(1,3)                  2.216          estimate D2E/DX2                !
 ! R3    R(1,4)                  1.968          estimate D2E/DX2                !
 ! R4    R(1,7)                  2.4217         estimate D2E/DX2                !
 ! R5    R(1,8)                  2.5312         estimate D2E/DX2                !
 ! R6    R(1,17)                 2.384          estimate D2E/DX2                !
 ! R7    R(1,21)                 2.5596         estimate D2E/DX2                !
 ! R8    R(4,5)                  1.3803         estimate D2E/DX2                !
 ! R9    R(4,15)                 1.383          estimate D2E/DX2                !
 ! R10   R(5,6)                  1.482          estimate D2E/DX2                !
 ! R11   R(5,12)                 1.3972         estimate D2E/DX2                !
 ! R12   R(6,7)                  1.465          estimate D2E/DX2                !
 ! R13   R(6,22)                 1.0968         estimate D2E/DX2                !
 ! R14   R(6,23)                 1.0956         estimate D2E/DX2                !
 ! R15   R(7,8)                  1.3459         estimate D2E/DX2                !
 ! R16   R(7,11)                 1.4249         estimate D2E/DX2                !
 ! R17   R(8,9)                  1.4438         estimate D2E/DX2                !
 ! R18   R(8,24)                 1.077          estimate D2E/DX2                !
 ! R19   R(9,10)                 1.3423         estimate D2E/DX2                !
 ! R20   R(9,25)                 1.0791         estimate D2E/DX2                !
 ! R21   R(10,11)                1.4314         estimate D2E/DX2                !
 ! R22   R(10,26)                1.0788         estimate D2E/DX2                !
 ! R23   R(11,27)                1.0783         estimate D2E/DX2                !
 ! R24   R(12,13)                1.3816         estimate D2E/DX2                !
 ! R25   R(12,28)                1.0845         estimate D2E/DX2                !
 ! R26   R(13,14)                1.3824         estimate D2E/DX2                !
 ! R27   R(13,29)                1.0845         estimate D2E/DX2                !
 ! R28   R(14,15)                1.3969         estimate D2E/DX2                !
 ! R29   R(14,30)                1.0843         estimate D2E/DX2                !
 ! R30   R(15,16)                1.4767         estimate D2E/DX2                !
 ! R31   R(16,17)                1.464          estimate D2E/DX2                !
 ! R32   R(16,31)                1.0953         estimate D2E/DX2                !
 ! R33   R(16,32)                1.0957         estimate D2E/DX2                !
 ! R34   R(17,18)                1.4333         estimate D2E/DX2                !
 ! R35   R(17,21)                1.4275         estimate D2E/DX2                !
 ! R36   R(18,19)                1.3364         estimate D2E/DX2                !
 ! R37   R(18,33)                1.0764         estimate D2E/DX2                !
 ! R38   R(19,20)                1.4548         estimate D2E/DX2                !
 ! R39   R(19,34)                1.0811         estimate D2E/DX2                !
 ! R40   R(20,21)                1.3392         estimate D2E/DX2                !
 ! R41   R(20,35)                1.0805         estimate D2E/DX2                !
 ! R42   R(21,36)                1.0747         estimate D2E/DX2                !
 ! A1    A(2,1,3)               90.0            estimate D2E/DX2                !
 ! A2    A(2,1,7)              112.576          estimate D2E/DX2                !
 ! A3    A(2,1,8)              109.672          estimate D2E/DX2                !
 ! A4    A(2,1,17)             113.8059         estimate D2E/DX2                !
 ! A5    A(2,1,21)              93.8568         estimate D2E/DX2                !
 ! A6    A(3,1,4)               87.065          estimate D2E/DX2                !
 ! A7    A(3,1,7)               99.9979         estimate D2E/DX2                !
 ! A8    A(3,1,8)              131.2674         estimate D2E/DX2                !
 ! A9    A(3,1,17)             109.8201         estimate D2E/DX2                !
 ! A10   A(3,1,21)             139.2765         estimate D2E/DX2                !
 ! A11   A(4,1,7)               66.7266         estimate D2E/DX2                !
 ! A12   A(4,1,8)               71.4776         estimate D2E/DX2                !
 ! A13   A(4,1,17)              68.5159         estimate D2E/DX2                !
 ! A14   A(4,1,21)              89.2244         estimate D2E/DX2                !
 ! A15   A(7,1,17)             123.837          estimate D2E/DX2                !
 ! A16   A(7,1,21)             115.5388         estimate D2E/DX2                !
 ! A17   A(8,1,17)             102.2138         estimate D2E/DX2                !
 ! A18   A(8,1,21)              85.0433         estimate D2E/DX2                !
 ! A19   A(1,4,5)              113.9433         estimate D2E/DX2                !
 ! A20   A(1,4,15)             123.39           estimate D2E/DX2                !
 ! A21   A(5,4,15)             108.9651         estimate D2E/DX2                !
 ! A22   A(4,5,6)              112.9439         estimate D2E/DX2                !
 ! A23   A(4,5,12)             127.2283         estimate D2E/DX2                !
 ! A24   A(6,5,12)             119.3456         estimate D2E/DX2                !
 ! A25   A(5,6,7)              105.1125         estimate D2E/DX2                !
 ! A26   A(5,6,22)             109.8875         estimate D2E/DX2                !
 ! A27   A(5,6,23)             111.1534         estimate D2E/DX2                !
 ! A28   A(7,6,22)             110.5963         estimate D2E/DX2                !
 ! A29   A(7,6,23)             112.2694         estimate D2E/DX2                !
 ! A30   A(22,6,23)            107.8287         estimate D2E/DX2                !
 ! A31   A(1,7,6)              108.5664         estimate D2E/DX2                !
 ! A32   A(1,7,11)              85.4164         estimate D2E/DX2                !
 ! A33   A(6,7,8)              131.6129         estimate D2E/DX2                !
 ! A34   A(6,7,11)             120.5248         estimate D2E/DX2                !
 ! A35   A(8,7,11)             107.5646         estimate D2E/DX2                !
 ! A36   A(1,8,9)               85.1821         estimate D2E/DX2                !
 ! A37   A(1,8,24)             111.5444         estimate D2E/DX2                !
 ! A38   A(7,8,9)              108.1223         estimate D2E/DX2                !
 ! A39   A(7,8,24)             126.9919         estimate D2E/DX2                !
 ! A40   A(9,8,24)             124.8857         estimate D2E/DX2                !
 ! A41   A(8,9,10)             109.4386         estimate D2E/DX2                !
 ! A42   A(8,9,25)             124.3415         estimate D2E/DX2                !
 ! A43   A(10,9,25)            126.1341         estimate D2E/DX2                !
 ! A44   A(9,10,11)            106.7645         estimate D2E/DX2                !
 ! A45   A(9,10,26)            127.2158         estimate D2E/DX2                !
 ! A46   A(11,10,26)           125.976          estimate D2E/DX2                !
 ! A47   A(7,11,10)            107.9672         estimate D2E/DX2                !
 ! A48   A(7,11,27)            126.6316         estimate D2E/DX2                !
 ! A49   A(10,11,27)           124.5825         estimate D2E/DX2                !
 ! A50   A(5,12,13)            118.4012         estimate D2E/DX2                !
 ! A51   A(5,12,28)            120.798          estimate D2E/DX2                !
 ! A52   A(13,12,28)           120.7372         estimate D2E/DX2                !
 ! A53   A(12,13,14)           118.06           estimate D2E/DX2                !
 ! A54   A(12,13,29)           120.8767         estimate D2E/DX2                !
 ! A55   A(14,13,29)           120.9637         estimate D2E/DX2                !
 ! A56   A(13,14,15)           118.4379         estimate D2E/DX2                !
 ! A57   A(13,14,30)           120.6501         estimate D2E/DX2                !
 ! A58   A(15,14,30)           120.9079         estimate D2E/DX2                !
 ! A59   A(4,15,14)            127.1067         estimate D2E/DX2                !
 ! A60   A(4,15,16)            111.528          estimate D2E/DX2                !
 ! A61   A(14,15,16)           121.254          estimate D2E/DX2                !
 ! A62   A(15,16,17)           101.3252         estimate D2E/DX2                !
 ! A63   A(15,16,31)           110.1671         estimate D2E/DX2                !
 ! A64   A(15,16,32)           112.6278         estimate D2E/DX2                !
 ! A65   A(17,16,31)           112.5879         estimate D2E/DX2                !
 ! A66   A(17,16,32)           111.9943         estimate D2E/DX2                !
 ! A67   A(31,16,32)           108.1056         estimate D2E/DX2                !
 ! A68   A(1,17,16)            116.1141         estimate D2E/DX2                !
 ! A69   A(1,17,18)             85.9752         estimate D2E/DX2                !
 ! A70   A(16,17,18)           120.9554         estimate D2E/DX2                !
 ! A71   A(16,17,21)           125.6592         estimate D2E/DX2                !
 ! A72   A(18,17,21)           111.1856         estimate D2E/DX2                !
 ! A73   A(17,18,19)           104.6977         estimate D2E/DX2                !
 ! A74   A(17,18,33)           127.7045         estimate D2E/DX2                !
 ! A75   A(19,18,33)           127.512          estimate D2E/DX2                !
 ! A76   A(18,19,20)           109.6346         estimate D2E/DX2                !
 ! A77   A(18,19,34)           126.4023         estimate D2E/DX2                !
 ! A78   A(20,19,34)           123.8307         estimate D2E/DX2                !
 ! A79   A(19,20,21)           109.9254         estimate D2E/DX2                !
 ! A80   A(19,20,35)           123.6388         estimate D2E/DX2                !
 ! A81   A(21,20,35)           126.3301         estimate D2E/DX2                !
 ! A82   A(1,21,20)             87.9582         estimate D2E/DX2                !
 ! A83   A(1,21,36)            113.6575         estimate D2E/DX2                !
 ! A84   A(17,21,20)           104.5511         estimate D2E/DX2                !
 ! A85   A(17,21,36)           127.4363         estimate D2E/DX2                !
 ! A86   A(20,21,36)           127.885          estimate D2E/DX2                !
 ! A87   L(2,1,4,3,-1)         177.065          estimate D2E/DX2                !
 ! A88   L(2,1,4,3,-2)         178.6901         estimate D2E/DX2                !
 ! D1    D(3,1,4,5)             51.2309         estimate D2E/DX2                !
 ! D2    D(3,1,4,15)           -84.7054         estimate D2E/DX2                !
 ! D3    D(7,1,4,5)            -50.9671         estimate D2E/DX2                !
 ! D4    D(7,1,4,15)           173.0966         estimate D2E/DX2                !
 ! D5    D(8,1,4,5)            -84.3056         estimate D2E/DX2                !
 ! D6    D(8,1,4,15)           139.758          estimate D2E/DX2                !
 ! D7    D(17,1,4,5)           163.8774         estimate D2E/DX2                !
 ! D8    D(17,1,4,15)           27.9411         estimate D2E/DX2                !
 ! D9    D(21,1,4,5)          -169.3378         estimate D2E/DX2                !
 ! D10   D(21,1,4,15)           54.7258         estimate D2E/DX2                !
 ! D11   D(2,1,7,6)           -138.5621         estimate D2E/DX2                !
 ! D12   D(2,1,7,11)           -17.8591         estimate D2E/DX2                !
 ! D13   D(3,1,7,6)            -44.3588         estimate D2E/DX2                !
 ! D14   D(3,1,7,11)            76.3442         estimate D2E/DX2                !
 ! D15   D(4,1,7,6)             38.0315         estimate D2E/DX2                !
 ! D16   D(4,1,7,11)           158.7345         estimate D2E/DX2                !
 ! D17   D(17,1,7,6)            77.828          estimate D2E/DX2                !
 ! D18   D(17,1,7,11)         -161.4689         estimate D2E/DX2                !
 ! D19   D(21,1,7,6)           115.2142         estimate D2E/DX2                !
 ! D20   D(21,1,7,11)         -124.0828         estimate D2E/DX2                !
 ! D21   D(2,1,8,9)              9.9716         estimate D2E/DX2                !
 ! D22   D(2,1,8,24)           135.6902         estimate D2E/DX2                !
 ! D23   D(3,1,8,9)            118.2547         estimate D2E/DX2                !
 ! D24   D(3,1,8,24)          -116.0267         estimate D2E/DX2                !
 ! D25   D(4,1,8,9)           -173.2045         estimate D2E/DX2                !
 ! D26   D(4,1,8,24)           -47.4859         estimate D2E/DX2                !
 ! D27   D(17,1,8,9)          -111.0908         estimate D2E/DX2                !
 ! D28   D(17,1,8,24)           14.6279         estimate D2E/DX2                !
 ! D29   D(21,1,8,9)           -82.3607         estimate D2E/DX2                !
 ! D30   D(21,1,8,24)           43.358          estimate D2E/DX2                !
 ! D31   D(2,1,17,16)          177.4939         estimate D2E/DX2                !
 ! D32   D(2,1,17,18)           54.8258         estimate D2E/DX2                !
 ! D33   D(3,1,17,16)           78.3446         estimate D2E/DX2                !
 ! D34   D(3,1,17,18)          -44.3235         estimate D2E/DX2                !
 ! D35   D(4,1,17,16)           -0.098          estimate D2E/DX2                !
 ! D36   D(4,1,17,18)         -122.7661         estimate D2E/DX2                !
 ! D37   D(7,1,17,16)          -39.2874         estimate D2E/DX2                !
 ! D38   D(7,1,17,18)         -161.9555         estimate D2E/DX2                !
 ! D39   D(8,1,17,16)          -64.3446         estimate D2E/DX2                !
 ! D40   D(8,1,17,18)          172.9873         estimate D2E/DX2                !
 ! D41   D(2,1,21,20)           22.5089         estimate D2E/DX2                !
 ! D42   D(2,1,21,36)         -108.4281         estimate D2E/DX2                !
 ! D43   D(3,1,21,20)          -71.9826         estimate D2E/DX2                !
 ! D44   D(3,1,21,36)          157.0804         estimate D2E/DX2                !
 ! D45   D(4,1,21,20)         -156.5764         estimate D2E/DX2                !
 ! D46   D(4,1,21,36)           72.4866         estimate D2E/DX2                !
 ! D47   D(7,1,21,20)          139.8094         estimate D2E/DX2                !
 ! D48   D(7,1,21,36)            8.8724         estimate D2E/DX2                !
 ! D49   D(8,1,21,20)          131.9489         estimate D2E/DX2                !
 ! D50   D(8,1,21,36)            1.0119         estimate D2E/DX2                !
 ! D51   D(1,4,5,6)             60.3747         estimate D2E/DX2                !
 ! D52   D(1,4,5,12)          -127.7272         estimate D2E/DX2                !
 ! D53   D(15,4,5,6)          -157.5045         estimate D2E/DX2                !
 ! D54   D(15,4,5,12)           14.3937         estimate D2E/DX2                !
 ! D55   D(1,4,15,14)          123.4602         estimate D2E/DX2                !
 ! D56   D(1,4,15,16)          -52.7063         estimate D2E/DX2                !
 ! D57   D(5,4,15,14)          -14.3108         estimate D2E/DX2                !
 ! D58   D(5,4,15,16)          169.5226         estimate D2E/DX2                !
 ! D59   D(4,5,6,7)            -18.2684         estimate D2E/DX2                !
 ! D60   D(4,5,6,22)           100.7561         estimate D2E/DX2                !
 ! D61   D(4,5,6,23)          -139.9632         estimate D2E/DX2                !
 ! D62   D(12,5,6,7)           169.128          estimate D2E/DX2                !
 ! D63   D(12,5,6,22)          -71.8475         estimate D2E/DX2                !
 ! D64   D(12,5,6,23)           47.4333         estimate D2E/DX2                !
 ! D65   D(4,5,12,13)           -6.1636         estimate D2E/DX2                !
 ! D66   D(4,5,12,28)          176.7142         estimate D2E/DX2                !
 ! D67   D(6,5,12,13)          165.2739         estimate D2E/DX2                !
 ! D68   D(6,5,12,28)          -11.8483         estimate D2E/DX2                !
 ! D69   D(5,6,7,1)            -18.9918         estimate D2E/DX2                !
 ! D70   D(5,6,7,8)             72.3671         estimate D2E/DX2                !
 ! D71   D(5,6,7,11)          -114.7415         estimate D2E/DX2                !
 ! D72   D(22,6,7,1)          -137.5406         estimate D2E/DX2                !
 ! D73   D(22,6,7,8)           -46.1817         estimate D2E/DX2                !
 ! D74   D(22,6,7,11)          126.7097         estimate D2E/DX2                !
 ! D75   D(23,6,7,1)           101.973          estimate D2E/DX2                !
 ! D76   D(23,6,7,8)          -166.6681         estimate D2E/DX2                !
 ! D77   D(23,6,7,11)            6.2233         estimate D2E/DX2                !
 ! D78   D(6,7,8,9)            177.4495         estimate D2E/DX2                !
 ! D79   D(6,7,8,24)            -2.6729         estimate D2E/DX2                !
 ! D80   D(11,7,8,9)             3.8693         estimate D2E/DX2                !
 ! D81   D(11,7,8,24)         -176.2531         estimate D2E/DX2                !
 ! D82   D(1,7,11,10)           73.4691         estimate D2E/DX2                !
 ! D83   D(1,7,11,27)         -116.5782         estimate D2E/DX2                !
 ! D84   D(6,7,11,10)         -177.6533         estimate D2E/DX2                !
 ! D85   D(6,7,11,27)           -7.7007         estimate D2E/DX2                !
 ! D86   D(8,7,11,10)           -3.2224         estimate D2E/DX2                !
 ! D87   D(8,7,11,27)          166.7302         estimate D2E/DX2                !
 ! D88   D(1,8,9,10)           -70.1292         estimate D2E/DX2                !
 ! D89   D(1,8,9,25)           113.0651         estimate D2E/DX2                !
 ! D90   D(7,8,9,10)            -3.2334         estimate D2E/DX2                !
 ! D91   D(7,8,9,25)           179.9609         estimate D2E/DX2                !
 ! D92   D(24,8,9,10)          176.8857         estimate D2E/DX2                !
 ! D93   D(24,8,9,25)            0.08           estimate D2E/DX2                !
 ! D94   D(8,9,10,11)            1.1477         estimate D2E/DX2                !
 ! D95   D(8,9,10,26)         -176.5464         estimate D2E/DX2                !
 ! D96   D(25,9,10,11)         177.882          estimate D2E/DX2                !
 ! D97   D(25,9,10,26)           0.1879         estimate D2E/DX2                !
 ! D98   D(9,10,11,7)            1.2023         estimate D2E/DX2                !
 ! D99   D(9,10,11,27)        -169.0069         estimate D2E/DX2                !
 ! D100  D(26,10,11,7)         178.9332         estimate D2E/DX2                !
 ! D101  D(26,10,11,27)          8.724          estimate D2E/DX2                !
 ! D102  D(5,12,13,14)          -4.2414         estimate D2E/DX2                !
 ! D103  D(5,12,13,29)         179.3519         estimate D2E/DX2                !
 ! D104  D(28,12,13,14)        172.8826         estimate D2E/DX2                !
 ! D105  D(28,12,13,29)         -3.5241         estimate D2E/DX2                !
 ! D106  D(12,13,14,15)          4.2939         estimate D2E/DX2                !
 ! D107  D(12,13,14,30)       -176.436          estimate D2E/DX2                !
 ! D108  D(29,13,14,15)       -179.3027         estimate D2E/DX2                !
 ! D109  D(29,13,14,30)         -0.0326         estimate D2E/DX2                !
 ! D110  D(13,14,15,4)           6.0185         estimate D2E/DX2                !
 ! D111  D(13,14,15,16)       -178.1536         estimate D2E/DX2                !
 ! D112  D(30,14,15,4)        -173.2496         estimate D2E/DX2                !
 ! D113  D(30,14,15,16)          2.5783         estimate D2E/DX2                !
 ! D114  D(4,15,16,17)          41.7269         estimate D2E/DX2                !
 ! D115  D(4,15,16,31)         -77.6708         estimate D2E/DX2                !
 ! D116  D(4,15,16,32)         161.5475         estimate D2E/DX2                !
 ! D117  D(14,15,16,17)       -134.6971         estimate D2E/DX2                !
 ! D118  D(14,15,16,31)        105.9051         estimate D2E/DX2                !
 ! D119  D(14,15,16,32)        -14.8766         estimate D2E/DX2                !
 ! D120  D(15,16,17,1)         -21.7841         estimate D2E/DX2                !
 ! D121  D(15,16,17,18)         79.9208         estimate D2E/DX2                !
 ! D122  D(15,16,17,21)       -118.4538         estimate D2E/DX2                !
 ! D123  D(31,16,17,1)          95.8701         estimate D2E/DX2                !
 ! D124  D(31,16,17,18)       -162.4249         estimate D2E/DX2                !
 ! D125  D(31,16,17,21)         -0.7995         estimate D2E/DX2                !
 ! D126  D(32,16,17,1)        -142.0542         estimate D2E/DX2                !
 ! D127  D(32,16,17,18)        -40.3492         estimate D2E/DX2                !
 ! D128  D(32,16,17,21)        121.2762         estimate D2E/DX2                !
 ! D129  D(1,17,18,19)         -76.9992         estimate D2E/DX2                !
 ! D130  D(1,17,18,33)         106.1907         estimate D2E/DX2                !
 ! D131  D(16,17,18,19)        164.8151         estimate D2E/DX2                !
 ! D132  D(16,17,18,33)        -11.9951         estimate D2E/DX2                !
 ! D133  D(21,17,18,19)          0.7585         estimate D2E/DX2                !
 ! D134  D(21,17,18,33)       -176.0517         estimate D2E/DX2                !
 ! D135  D(16,17,21,20)       -163.6431         estimate D2E/DX2                !
 ! D136  D(16,17,21,36)         12.4836         estimate D2E/DX2                !
 ! D137  D(18,17,21,20)         -0.4965         estimate D2E/DX2                !
 ! D138  D(18,17,21,36)        175.6302         estimate D2E/DX2                !
 ! D139  D(17,18,19,20)         -0.7            estimate D2E/DX2                !
 ! D140  D(17,18,19,34)       -176.6244         estimate D2E/DX2                !
 ! D141  D(33,18,19,20)        176.1184         estimate D2E/DX2                !
 ! D142  D(33,18,19,34)          0.1941         estimate D2E/DX2                !
 ! D143  D(18,19,20,21)          0.4343         estimate D2E/DX2                !
 ! D144  D(18,19,20,35)       -176.0348         estimate D2E/DX2                !
 ! D145  D(34,19,20,21)        176.4855         estimate D2E/DX2                !
 ! D146  D(34,19,20,35)          0.0164         estimate D2E/DX2                !
 ! D147  D(19,20,21,1)          65.1984         estimate D2E/DX2                !
 ! D148  D(19,20,21,17)          0.0527         estimate D2E/DX2                !
 ! D149  D(19,20,21,36)       -176.0505         estimate D2E/DX2                !
 ! D150  D(35,20,21,1)        -118.4507         estimate D2E/DX2                !
 ! D151  D(35,20,21,17)        176.4036         estimate D2E/DX2                !
 ! D152  D(35,20,21,36)          0.3004         estimate D2E/DX2                !
 --------------------------------------------------------------------------------
 Trust Radius=3.00D-01 FncErr=1.00D-07 GrdErr=1.00D-07
 Number of steps in this run=    216 maximum allowed number of steps=    216.
 GradGradGradGradGradGradGradGradGradGradGradGradGradGradGradGradGradGrad

 Leave Link  103 at Mon Sep 15 12:50:20 2025, MaxMem=    33554432 cpu:         0.0
 (Enter /appl/g09.shchoi/G09Files/g09/l202.exe)
                          Input orientation:                          
 ---------------------------------------------------------------------
 Center     Atomic      Atomic             Coordinates (Angstroms)
 Number     Number       Type             X           Y           Z
 ---------------------------------------------------------------------
      1         40           0        0.000000    0.000000    0.000000
      2         17           0        0.000000    0.000000   -2.216000
      3         17           0        2.216000    0.000000    0.000000
      4          7           0        0.100769    0.044929    1.964905
      5          6           0        0.918344    1.040096    2.461263
      6          6           0        0.476449    2.399496    2.070129
      7          6           0       -0.420430    2.196213    0.929696
      8          6           0       -1.669525    1.701083    0.852098
      9          6           0       -2.101466    1.785523   -0.523004
     10          6           0       -1.151309    2.390135   -1.253375
     11          6           0       -0.070434    2.684583   -0.362301
     12          6           0        1.963238    0.896974    3.377645
     13          6           0        2.158913   -0.338894    3.963419
     14          6           0        1.254125   -1.344361    3.678047
     15          6           0        0.246154   -1.087308    2.745642
     16          6           0       -0.776985   -2.102381    2.423977
     17          6           0       -0.808333   -2.025842    0.962274
     18          6           0        0.188037   -2.682244    0.168115
     19          6           0       -0.319530   -2.697508   -1.068007
     20          6           0       -1.633574   -2.073280   -1.064628
     21          6           0       -1.939801   -1.660978    0.172161
     22          1           0       -0.059040    2.871735    2.902735
     23          1           0        1.331795    3.035856    1.817406
     24          1           0       -2.260788    1.304492    1.660244
     25          1           0       -3.066237    1.458609   -0.879218
     26          1           0       -1.197535    2.646837   -2.300209
     27          1           0        0.768416    3.317018   -0.605587
     28          1           0        2.576079    1.746621    3.658172
     29          1           0        2.964290   -0.497630    4.672179
     30          1           0        1.334179   -2.312879    4.158942
     31          1           0       -1.735033   -1.830646    2.880150
     32          1           0       -0.503540   -3.103065    2.776727
     33          1           0        1.114181   -3.117659    0.501821
     34          1           0        0.125480   -3.158690   -1.938618
     35          1           0       -2.273142   -2.019951   -1.933901
     36          1           0       -2.858135   -1.217836    0.511636
 ---------------------------------------------------------------------
                    Distance matrix (angstroms):
                    1          2          3          4          5
     1  Zr   0.000000
     2  Cl   2.216000   0.000000
     3  Cl   2.216000   3.133897   0.000000
     4  N    1.968000   4.182360   2.887399   0.000000
     5  C    2.825415   4.878724   2.970442   1.380274   0.000000
     6  C    3.204687   4.935128   3.615115   2.386670   1.481967
     7  C    2.421662   3.859471   3.555060   2.443630   2.339790
     8  C    2.531219   3.885129   4.326322   2.667420   3.118234
     9  C    2.806739   3.235813   4.701291   3.750893   4.310540
    10  C    2.934144   2.822216   4.315375   4.174328   4.461457
    11  C    2.709836   3.263150   3.544859   3.523204   3.413873
    12  C    4.008410   5.995643   3.503846   2.488093   1.397156
    13  C    4.525974   6.554462   3.978290   2.894362   2.386859
    14  C    4.111954   6.174134   4.032436   2.489019   2.697952
    15  C    2.963339   5.085344   3.549800   1.382985   2.249124
    16  C    3.301421   5.152970   4.387896   2.364771   3.570811
    17  C    2.383990   3.854719   3.765182   2.473829   3.824704
    18  C    2.694078   3.593577   3.366798   3.267039   4.432571
    19  C    2.918782   2.948989   3.853064   4.110494   5.287510
    20  C    2.846135   2.879707   4.500127   4.083237   5.351383
    21  C    2.559554   3.496425   4.478746   3.207487   4.550250
    22  H    4.083653   5.869566   4.674243   2.982599   2.122517
    23  H    3.780617   5.220964   3.647082   3.237719   2.137417
    24  H    3.093424   4.673129   4.949722   2.693746   3.289136
    25  H    3.507474   3.649156   5.550009   4.485249   5.216402
    26  H    3.705509   2.906360   4.893764   5.162045   5.452538
    27  H    3.458296   3.766498   3.669448   4.214232   3.822620
    28  H    4.803029   6.647764   4.069713   3.448197   2.163297
    29  H    5.555529   7.515428   4.757818   3.977871   3.382107
    30  H    4.942291   6.911536   4.839816   3.448820   3.781200
    31  H    3.828429   5.686154   5.220842   2.779501   3.931543
    32  H    4.194374   5.899990   4.973442   3.306677   4.391703
    33  H    3.348585   4.283427   3.344492   3.628991   4.600509
    34  H    3.708275   3.173327   4.255095   5.049879   6.133302
    35  H    3.603796   3.054006   5.288910   5.009977   6.234335
    36  H    3.148624   4.134254   5.243257   3.530110   4.812597
                    6          7          8          9         10
     6  C    0.000000
     7  C    1.465026   0.000000
     8  C    2.564485   1.345888   0.000000
     9  C    3.707687   2.259399   1.443817   0.000000
    10  C    3.700724   2.310322   2.275161   1.342310   0.000000
    11  C    2.509396   1.424872   2.235874   2.226932   1.431434
    12  C    2.485501   3.655455   4.496882   5.703192   5.777221
    13  C    3.730149   4.720513   5.338423   6.541556   6.754265
    14  C    4.148090   4.784687   5.080202   6.221334   6.637130
    15  C    3.559095   3.810972   3.876914   4.944545   5.480661
    16  C    4.686492   4.564857   4.211149   5.055170   5.817709
    17  C    4.739370   4.239962   3.826716   4.290074   4.952532
    18  C    5.433684   4.974895   4.809566   5.067584   5.435394
    19  C    6.038288   5.286729   4.985668   4.854883   5.158519
    20  C    5.855307   4.865965   4.233314   3.924619   4.493359
    21  C    5.091954   4.214293   3.440758   3.519624   4.366393
    22  H    1.096810   2.116557   2.858182   4.133648   4.324146
    23  H    1.095646   2.136194   3.423647   4.339140   4.001557
    24  H    2.976492   2.171585   1.077022   2.241282   3.301324
    25  H    4.704736   3.288849   2.237645   1.079141   2.162102
    26  H    4.686496   3.352497   3.324795   2.171960   1.078839
    27  H    2.843685   2.242020   3.267973   3.254001   2.228023
    28  H    2.712300   4.077472   5.089330   6.274007   6.199259
    29  H    4.620970   5.720079   6.395280   7.606878   7.771070
    30  H    5.225450   5.817095   6.005776   7.107825   7.588752
    31  H    4.841579   4.663480   4.073131   4.979197   5.936476
    32  H    5.633634   5.612555   5.305050   6.110636   6.843724
    33  H    5.771073   5.547553   5.576019   5.952465   6.208780
    34  H    6.861972   6.099199   5.884516   5.604328   5.734911
    35  H    6.566888   5.422985   4.687455   4.062232   4.601139
    36  H    5.160759   4.215792   3.169983   3.265454   4.364169
                   11         12         13         14         15
    11  C    0.000000
    12  C    4.617203   0.000000
    13  C    5.729157   1.381589   0.000000
    14  C    5.857581   2.369950   1.382404   0.000000
    15  C    4.897622   2.699107   2.387834   1.396947   0.000000
    16  C    5.583689   4.173061   3.754899   2.504535   1.476704
    17  C    4.948444   4.696646   4.545021   3.477582   2.274465
    18  C    5.399165   5.124766   4.876471   3.904625   3.031640
    19  C    5.433873   6.155904   6.084487   5.180003   4.178116
    20  C    5.057067   6.441526   6.532404   5.600276   4.361614
    21  C    4.760681   5.661445   5.737682   4.753172   3.424953
    22  H    3.270415   2.866153   4.043823   4.483412   3.973896
    23  H    2.615485   2.721743   4.083923   4.759655   4.363567
    24  H    3.285269   4.577984   5.247770   4.841752   3.630917
    25  H    3.277965   6.613013   7.347404   6.876834   5.531116
    26  H    2.242157   6.729824   7.708006   7.594725   6.441171
    27  H    1.078346   4.811481   6.014564   6.349322   5.558919
    28  H    4.903876   1.084513   2.148621   3.361863   3.780531
    29  H    6.684461   2.150080   1.084514   2.151724   3.383419
    30  H    6.883982   3.362930   2.148263   1.084295   2.164079
    31  H    5.802730   4.622188   4.308319   3.131802   2.120318
    32  H    6.598329   4.737764   4.017155   2.644769   2.150880
    33  H    5.984649   5.010842   4.560225   3.640409   3.148098
    34  H    6.055328   6.934581   6.849828   6.009373   5.123229
    35  H    5.427199   7.393773   7.566204   6.662732   5.395812
    36  H    4.874825   5.994336   6.152894   5.191614   3.826804
                   16         17         18         19         20
    16  C    0.000000
    17  C    1.464042   0.000000
    18  C    2.521194   1.433285   0.000000
    19  C    3.571749   2.193650   1.336359   0.000000
    20  C    3.592347   2.188973   2.282271   1.454779   0.000000
    21  C    2.572480   1.427453   2.360232   2.288600   1.339184
    22  H    5.048415   5.321005   6.195634   6.844787   6.532404
    23  H    5.587161   5.561671   6.060117   6.627514   6.572884
    24  H    3.793645   3.699718   4.910933   5.218030   4.384936
    25  H    5.369584   4.542094   5.369718   4.985313   3.815906
    26  H    6.711920   5.712197   6.034197   5.554389   4.898601
    27  H    6.398157   5.787096   6.076726   6.129599   5.919087
    28  H    5.251770   5.740522   6.123568   7.104336   7.390376
    29  H    4.650460   5.507406   5.724221   6.969410   7.518908
    30  H    2.740698   3.858943   4.168545   5.495788   6.012541
    31  H    1.095350   2.138954   3.431990   4.282878   3.953535
    32  H    1.095706   2.132030   2.731341   3.870441   4.134421
    33  H    2.881315   2.258349   1.076424   2.167121   3.330863
    34  H    4.578479   3.251234   2.160842   1.081058   2.244158
    35  H    4.608295   3.245539   3.303711   2.241752   1.080521
    36  H    2.961529   2.248918   3.397302   3.336048   2.171622
                   21         22         23         24         25
    21  C    0.000000
    22  H    5.615940   0.000000
    23  H    5.955705   1.771806   0.000000
    24  H    3.333382   2.974513   3.991112   0.000000
    25  H    3.479379   5.034216   5.394643   2.668590   0.000000
    26  H    5.022036   5.330795   4.848051   4.314810   2.631187
    27  H    5.720120   3.631981   2.503466   4.284896   4.270026
    28  H    6.645086   2.963177   2.568811   5.251902   7.246143
    29  H    6.756748   4.860461   4.827038   6.294508   8.426870
    30  H    5.199840   5.513560   5.838816   5.679142   7.679248
    31  H    2.721015   4.992179   5.849590   3.404949   5.169541
    32  H    3.305484   5.992637   6.478819   4.874527   6.382963
    33  H    3.399617   6.558481   6.296337   5.682233   6.350228
    34  H    3.311180   7.735553   7.344067   6.210159   5.712166
    35  H    2.162284   7.226609   7.254589   4.895912   3.720448
    36  H    1.074689   5.502443   6.111828   2.835183   3.023432
                   26         27         28         29         30
    26  H    0.000000
    27  H    2.680643   0.000000
    28  H    7.110053   4.890136   0.000000
    29  H    8.707620   6.872279   2.493107   0.000000
    30  H    8.528129   7.397065   4.274650   2.493152   0.000000
    31  H    6.868251   6.701945   5.655779   5.203070   3.359750
    32  H    7.701836   7.367183   5.812095   4.733590   2.431485
    33  H    6.813576   6.538423   5.980043   5.261115   3.751080
    34  H    5.965338   6.642675   7.835277   7.670901   6.273483
    35  H    4.803126   6.284802   8.305015   8.566705   7.086699
    36  H    5.059620   5.913117   6.944017   7.192319   5.663696
                   31         32         33         34         35
    31  H    0.000000
    32  H    1.773787   0.000000
    33  H    3.928215   2.791493   0.000000
    34  H    5.333455   4.757441   2.633431   0.000000
    35  H    4.847729   5.147294   4.314123   2.655209   0.000000
    36  H    2.691979   3.772114   4.403262   4.321183   2.639366
                   36
    36  H    0.000000
 Stoichiometry    C17H15Cl2NZr
 Framework group  C1[X(C17H15Cl2NZr)]
 Deg. of freedom   102
 Full point group                 C1      NOp   1
 Largest Abelian subgroup         C1      NOp   1
 Largest concise Abelian subgroup C1      NOp   1
                         Standard orientation:                         
 ---------------------------------------------------------------------
 Center     Atomic      Atomic             Coordinates (Angstroms)
 Number     Number       Type             X           Y           Z
 ---------------------------------------------------------------------
      1         40           0       -0.535796   -0.008718    0.181643
      2         17           0       -2.536725    0.054812    1.131855
      3         17           0        0.405696   -0.209439    2.177629
      4          7           0        1.278315   -0.118903   -0.573263
      5          6           0        2.009506   -1.197853   -0.118968
      6          6           0        1.380688   -2.499865   -0.443896
      7          6           0       -0.016966   -2.183569   -0.748566
      8          6           0       -0.585708   -1.575314   -1.805908
      9          6           0       -2.016326   -1.580825   -1.611203
     10          6           0       -2.311223   -2.247826   -0.484286
     11          6           0       -1.066448   -2.664392    0.086691
     12          6           0        3.290139   -1.176294    0.439206
     13          6           0        3.982109    0.019466    0.450301
     14          6           0        3.405041    1.110520   -0.172303
     15          6           0        2.118260    0.972661   -0.698278
     16          6           0        1.458758    2.085038   -1.411252
     17          6           0        0.120650    2.053589   -0.818043
     18          6           0       -0.130669    2.639541    0.465626
     19          6           0       -1.461479    2.736148    0.539559
     20          6           0       -2.057078    2.233670   -0.688920
     21          6           0       -1.097088    1.815513   -1.523773
     22          1           0        1.874442   -2.945334   -1.316109
     23          1           0        1.474748   -3.203576    0.390599
     24          1           0       -0.081556   -1.150130   -2.657392
     25          1           0       -2.726724   -1.157791   -2.304688
     26          1           0       -3.292696   -2.469169   -0.094912
     27          1           0       -0.970623   -3.362973    0.902555
     28          1           0        3.748872   -2.085649    0.811772
     29          1           0        4.974519    0.084216    0.882852
     30          1           0        3.935901    2.053620   -0.238988
     31          1           0        1.446050    1.888232   -2.488701
     32          1           0        1.958155    3.046314   -1.246560
     33          1           0        0.592287    2.979531    1.187034
     34          1           0       -2.028706    3.179896    1.345802
     35          1           0       -3.117160    2.263434   -0.895961
     36          1           0       -1.209379    1.447824   -2.527342
 ---------------------------------------------------------------------
 Rotational constants (GHZ):      0.3947735      0.3100114      0.2435331
 Leave Link  202 at Mon Sep 15 12:50:20 2025, MaxMem=    33554432 cpu:         0.0
 (Enter /appl/g09.shchoi/G09Files/g09/l301.exe)
 Standard basis: SDD (6D, 10F)
 Ernie: Thresh=  0.10000D-02 Tol=  0.10000D-05 Strict=F.
 There are   285 symmetry adapted cartesian basis functions of A   symmetry.
 There are   285 symmetry adapted basis functions of A   symmetry.
   285 basis functions,   629 primitive gaussians,   285 cartesian basis functions
    85 alpha electrons       85 beta electrons
       nuclear repulsion energy      2208.2842650815 Hartrees.



 Warning!  Cl atom    2 may be hypervalent but has no d functions.
 Warning!  Cl atom    3 may be hypervalent but has no d functions.



 IExCor=    0 DFT=F Ex=HF Corr=None ExCW=0 ScaHFX=  1.000000
 ScaDFX=  1.000000  1.000000  1.000000  1.000000 ScalE2=  1.000000  1.000000
 IRadAn=      0 IRanWt=     -1 IRanGd=            0 ICorTp=0 IEmpDi=  4
 NAtoms=   36 NActive=   36 NUniq=   36 SFac= 1.00D+00 NAtFMM=   60 NAOKFM=F Big=F
 Integral buffers will be    131072 words long.
 Raffenetti 1 integral format.
 Two-electron integral symmetry is turned on.
 Leave Link  301 at Mon Sep 15 12:50:20 2025, MaxMem=    33554432 cpu:         0.0
 (Enter /appl/g09.shchoi/G09Files/g09/l402.exe)
 External calculation of energy and first derivatives.
 Running external command "/home/rxn_grp/programs/xtb-gaussian R"
         input file       "/home/rxn_grp/scratch/Gau-2484788.EIn"
         output file      "/home/rxn_grp/scratch/Gau-2484788.EOu"
         message file     "/home/rxn_grp/scratch/Gau-2484788.EMs"
         fchk file        "/home/rxn_grp/scratch/Gau-2484788.EFC"
         mat. el file     "/home/rxn_grp/scratch/Gau-2484788.EUF"

 ExternalExternalExternalExternalExternalExternalExternalExternalExternalExternal
 Output from external command:
 "/home/rxn_grp/programs/xtb-gaussian R /home/rxn_grp/scratch/Gau-2484788.EIn /home/rxn_grp/scratch/Gau-2484788.EOu /home/rxn_grp/scratch/Gau-2484788.EMs /home/rxn_grp/scratch/Gau-2484788.EFC /home/rxn_grp/scratch/Gau-2484788.EUF"
 normal termination of xtb
  
 ------- xtb command was ---------
 ?> xtb ./Gau-2484788.EIn  --grad --charge 0  >/dev/null 2>Gau-2484788.EMs
 ---------------------------------
              Control returned to Gaussian.
 ~~~~~~~~~~~~~~~~~~~~~~~~~~~~~~~~~~~~~~~~~~~~~~~~~~~~~~~~~~~~~~~~~~~~~~~~~
 ExternalExternalExternalExternalExternalExternalExternalExternalExternalExternal

 Recovered energy= -57.8256418888     dipole=      3.559950912860      0.028397952861     -1.698581609880
 Energy=    -57.8256419     NIter=   0.
 Dipole moment=       3.559951       0.028398      -1.698582
 Leave Link  402 at Mon Sep 15 12:50:21 2025, MaxMem=    33554432 cpu:         0.0
 (Enter /appl/g09.shchoi/G09Files/g09/l601.exe)
 Leave Link  601 at Mon Sep 15 12:50:21 2025, MaxMem=    33554432 cpu:         0.0
 (Enter /appl/g09.shchoi/G09Files/g09/l716.exe)
 Dipole        = 3.55995091D+00 2.83979529D-02-1.69858161D+00
 ***** Axes restored to original set *****
 -------------------------------------------------------------------
 Center     Atomic                   Forces (Hartrees/Bohr)
 Number     Number              X              Y              Z
 -------------------------------------------------------------------
      1       40          -0.050147794    0.001775096   -0.025011855
      2       17           0.007693496    0.001468675   -0.040408594
      3       17           0.036542678   -0.000433185    0.001778227
      4        7           0.051541859   -0.004017677    0.120063529
      5        6          -0.006606990    0.000057401    0.002913669
      6        6           0.009299004    0.007303291    0.007418616
      7        6           0.040192712    0.051383576   -0.034648540
      8        6          -0.057201840   -0.032276708   -0.018537359
      9        6          -0.032992473   -0.025620366    0.033972650
     10        6           0.040545148    0.028686371   -0.003354911
     11        6          -0.005849939   -0.007034564   -0.018335435
     12        6          -0.008043991   -0.004497261   -0.001979270
     13        6           0.008186417   -0.002451934    0.003758842
     14        6          -0.002737458    0.006902021   -0.004906549
     15        6           0.001918956    0.000565929   -0.005547990
     16        6          -0.001970045   -0.004798052    0.020699989
     17        6          -0.006397315   -0.012030232    0.002668931
     18        6          -0.001916113    0.013538991    0.032967299
     19        6          -0.037909016    0.000383673   -0.056763716
     20        6           0.023485086   -0.028953680   -0.058279625
     21        6           0.008722896    0.008039812    0.033018706
     22        1           0.001726537   -0.001560239    0.003583515
     23        1          -0.001320974    0.000540044   -0.000416053
     24        1          -0.005929150   -0.000252616    0.006103679
     25        1          -0.003142613   -0.000502146    0.000096569
     26        1           0.000661737    0.000806214    0.001274191
     27        1           0.004945951   -0.001797875    0.000074924
     28        1          -0.004211587   -0.002456422   -0.003592717
     29        1          -0.001558600   -0.000011299   -0.002639983
     30        1          -0.004005695    0.004253795   -0.002137499
     31        1          -0.001055601    0.000407341   -0.000352629
     32        1          -0.000094673    0.001503605    0.001653760
     33        1           0.002282316   -0.001424228    0.004285259
     34        1          -0.000681062    0.002090371   -0.001597489
     35        1           0.001336691    0.000869129   -0.002083778
     36        1          -0.005308556   -0.000456851    0.004261638
 -------------------------------------------------------------------
 Cartesian Forces:  Max     0.120063529 RMS     0.022073516
 Leave Link  716 at Mon Sep 15 12:50:21 2025, MaxMem=    33554432 cpu:         0.0
 (Enter /appl/g09.shchoi/G09Files/g09/l103.exe)

 GradGradGradGradGradGradGradGradGradGradGradGradGradGradGradGradGradGrad
 Berny optimization.
 FormGI is forming the generalized inverse of G from B-inverse, IUseBI=4.
 Internal  Forces:  Max     0.072813315 RMS     0.010331901
 Search for a local minimum.
 Step number   1 out of a maximum of  216
 All quantities printed in internal units (Hartrees-Bohrs-Radians)
 RMS Force = .10332D-01 SwitMx=.10000D-02 MixMth= 1
 Mixed Optimization -- RFO/linear search
 Second derivative matrix not updated -- first step.
 ITU=  0
     Eigenvalues ---    0.00969   0.01118   0.01572   0.01757   0.01837
     Eigenvalues ---    0.01908   0.01917   0.01928   0.01942   0.01980
     Eigenvalues ---    0.02093   0.02214   0.02231   0.02238   0.02281
     Eigenvalues ---    0.02332   0.02342   0.02491   0.02594   0.02716
     Eigenvalues ---    0.02882   0.03072   0.03348   0.03380   0.03698
     Eigenvalues ---    0.03868   0.04717   0.05043   0.05293   0.05394
     Eigenvalues ---    0.05582   0.06022   0.06310   0.06524   0.06691
     Eigenvalues ---    0.07064   0.07694   0.08202   0.08366   0.08557
     Eigenvalues ---    0.08603   0.09172   0.09861   0.10990   0.12581
     Eigenvalues ---    0.15154   0.15551   0.15813   0.15916   0.15950
     Eigenvalues ---    0.15952   0.15964   0.15966   0.15983   0.15991
     Eigenvalues ---    0.15999   0.16239   0.17921   0.19232   0.19515
     Eigenvalues ---    0.19515   0.19555   0.20108   0.20551   0.21328
     Eigenvalues ---    0.22196   0.23415   0.29228   0.30537   0.31816
     Eigenvalues ---    0.32952   0.33464   0.34037   0.34060   0.34161
     Eigenvalues ---    0.34168   0.34202   0.35377   0.35454   0.35455
     Eigenvalues ---    0.35480   0.35867   0.35931   0.36098   0.36135
     Eigenvalues ---    0.36195   0.36357   0.36430   0.36644   0.36823
     Eigenvalues ---    0.39016   0.39954   0.40267   0.40567   0.43867
     Eigenvalues ---    0.45602   0.46110   0.47293   0.48376   0.50516
     Eigenvalues ---    0.53180   0.56690
 RFO step:  Lambda=-8.13768988D-02 EMin= 9.69215535D-03
 Linear search not attempted -- first point.
 Maximum step size (   0.300) exceeded in Quadratic search.
    -- Step size scaled by   0.650
 Iteration  1 RMS(Cart)=  0.02865643 RMS(Int)=  0.00029642
 Iteration  2 RMS(Cart)=  0.00035809 RMS(Int)=  0.00012977
 Iteration  3 RMS(Cart)=  0.00000015 RMS(Int)=  0.00012977
 ITry= 1 IFail=0 DXMaxC= 1.54D-01 DCOld= 1.00D+10 DXMaxT= 3.00D-01 DXLimC= 3.00D+00 Rises=F
 Variable       Old X    -DE/DX   Delta X   Delta X   Delta X     New X
                                 (Linear)    (Quad)   (Total)
    R1        4.18763   0.04041   0.00000   0.09503   0.09503   4.28267
    R2        4.18763   0.03654   0.00000   0.08594   0.08594   4.27358
    R3        3.71898   0.07281   0.00000   0.16851   0.16873   3.88771
    R4        4.57628   0.00550   0.00000   0.01835   0.01814   4.59442
    R5        4.78331   0.01238   0.00000   0.02088   0.02060   4.80391
    R6        4.50509   0.00745   0.00000   0.02654   0.02615   4.53124
    R7        4.83686   0.00555   0.00000   0.02469   0.02475   4.86161
    R8        2.60834  -0.00877   0.00000  -0.02001  -0.01992   2.58842
    R9        2.61346  -0.01616   0.00000  -0.02373  -0.02352   2.58995
   R10        2.80051   0.01423   0.00000   0.02695   0.02726   2.82777
   R11        2.64024  -0.00828   0.00000  -0.01037  -0.01035   2.62989
   R12        2.76850   0.02483   0.00000   0.04398   0.04404   2.81253
   R13        2.07267   0.00121   0.00000   0.00186   0.00186   2.07453
   R14        2.07047  -0.00062   0.00000  -0.00096  -0.00096   2.06951
   R15        2.54336   0.05183   0.00000   0.06495   0.06504   2.60840
   R16        2.69262   0.00194   0.00000   0.00076   0.00061   2.69323
   R17        2.72842  -0.01671   0.00000  -0.02115  -0.02108   2.70734
   R18        2.03528   0.00793   0.00000   0.01159   0.01159   2.04686
   R19        2.53660   0.04761   0.00000   0.04853   0.04869   2.58529
   R20        2.03928   0.00293   0.00000   0.00431   0.00431   2.04359
   R21        2.70502  -0.01265   0.00000  -0.01805  -0.01803   2.68699
   R22        2.03871  -0.00107   0.00000  -0.00158  -0.00158   2.03713
   R23        2.03778   0.00278   0.00000   0.00407   0.00407   2.04185
   R24        2.61082   0.00117   0.00000   0.00550   0.00546   2.61628
   R25        2.04943  -0.00523   0.00000  -0.00781  -0.00781   2.04162
   R26        2.61237  -0.00018   0.00000   0.00420   0.00414   2.61651
   R27        2.04943  -0.00288   0.00000  -0.00430  -0.00430   2.04514
   R28        2.63985  -0.00938   0.00000  -0.01124  -0.01126   2.62859
   R29        2.04902  -0.00504   0.00000  -0.00752  -0.00752   2.04150
   R30        2.79057   0.01651   0.00000   0.02818   0.02844   2.81901
   R31        2.76664   0.03576   0.00000   0.05410   0.05402   2.82066
   R32        2.06991   0.00088   0.00000   0.00135   0.00135   2.07126
   R33        2.07058  -0.00086   0.00000  -0.00133  -0.00133   2.06926
   R34        2.70852   0.00097   0.00000   0.00078   0.00074   2.70925
   R35        2.69749   0.00372   0.00000   0.00703   0.00702   2.70451
   R36        2.52535   0.05892   0.00000   0.05794   0.05802   2.58337
   R37        2.03415   0.00387   0.00000   0.00564   0.00564   2.03979
   R38        2.74913  -0.02761   0.00000  -0.03867  -0.03857   2.71056
   R39        2.04290   0.00011   0.00000   0.00017   0.00017   2.04307
   R40        2.53069   0.06109   0.00000   0.06087   0.06084   2.59154
   R41        2.04189   0.00093   0.00000   0.00137   0.00137   2.04326
   R42        2.03087   0.00569   0.00000   0.00827   0.00827   2.03914
    A1        1.57080  -0.00208   0.00000  -0.01268  -0.01272   1.55807
    A2        1.96482  -0.00390   0.00000  -0.00829  -0.00842   1.95640
    A3        1.91414  -0.00043   0.00000   0.00687   0.00704   1.92118
    A4        1.98629   0.00318   0.00000   0.00773   0.00779   1.99408
    A5        1.63811  -0.00037   0.00000   0.00622   0.00626   1.64437
    A6        1.51957  -0.00616   0.00000  -0.01649  -0.01635   1.50322
    A7        1.74529  -0.00349   0.00000  -0.00528  -0.00526   1.74003
    A8        2.29105   0.00649   0.00000   0.00585   0.00581   2.29685
    A9        1.91672   0.00043   0.00000   0.00031   0.00036   1.91708
   A10        2.43083  -0.00214   0.00000  -0.00588  -0.00590   2.42493
   A11        1.16460   0.00340   0.00000   0.00984   0.00971   1.17431
   A12        1.24752   0.00522   0.00000   0.01126   0.01112   1.25864
   A13        1.19583   0.00184   0.00000   0.00707   0.00708   1.20290
   A14        1.55726   0.00789   0.00000   0.01846   0.01829   1.57555
   A15        2.16136   0.00330   0.00000   0.00929   0.00920   2.17056
   A16        2.01653   0.00780   0.00000   0.01587   0.01580   2.03233
   A17        1.78397  -0.00621   0.00000  -0.00581  -0.00593   1.77803
   A18        1.48429  -0.00331   0.00000   0.00154   0.00153   1.48581
   A19        1.98869  -0.00864   0.00000  -0.01541  -0.01558   1.97310
   A20        2.15356  -0.00509   0.00000  -0.02005  -0.02030   2.13326
   A21        1.90180   0.01556   0.00000   0.04668   0.04709   1.94889
   A22        1.97124   0.00502   0.00000   0.00715   0.00748   1.97872
   A23        2.22055  -0.01077   0.00000  -0.02938  -0.02950   2.19105
   A24        2.08297   0.00603   0.00000   0.02385   0.02357   2.10654
   A25        1.83456   0.00414   0.00000   0.02355   0.02391   1.85847
   A26        1.91790  -0.00734   0.00000  -0.02051  -0.02055   1.89735
   A27        1.93999   0.00331   0.00000   0.00156   0.00127   1.94126
   A28        1.93027   0.00712   0.00000   0.00943   0.00924   1.93951
   A29        1.95947  -0.00754   0.00000  -0.01354  -0.01345   1.94603
   A30        1.88197   0.00029   0.00000  -0.00065  -0.00062   1.88134
   A31        1.89484   0.00170   0.00000  -0.00250  -0.00281   1.89203
   A32        1.49080  -0.00002   0.00000  -0.00421  -0.00401   1.48679
   A33        2.29708  -0.00668   0.00000  -0.01863  -0.01858   2.27850
   A34        2.10356   0.00304   0.00000   0.01104   0.01108   2.11463
   A35        1.87736   0.00400   0.00000   0.00930   0.00908   1.88643
   A36        1.48671   0.00113   0.00000   0.00823   0.00841   1.49512
   A37        1.94682   0.00443   0.00000   0.00618   0.00612   1.95294
   A38        1.88709  -0.00524   0.00000  -0.00873  -0.00864   1.87845
   A39        2.21643   0.00590   0.00000   0.01148   0.01137   2.22779
   A40        2.17967  -0.00066   0.00000  -0.00273  -0.00279   2.17688
   A41        1.91006  -0.00638   0.00000  -0.01030  -0.01028   1.89979
   A42        2.17017   0.00200   0.00000   0.00214   0.00212   2.17229
   A43        2.20145   0.00438   0.00000   0.00789   0.00788   2.20933
   A44        1.86339   0.01037   0.00000   0.02179   0.02173   1.88512
   A45        2.22033  -0.00407   0.00000  -0.00774  -0.00776   2.21257
   A46        2.19870  -0.00616   0.00000  -0.01348  -0.01350   2.18519
   A47        1.88438  -0.00247   0.00000  -0.01051  -0.01085   1.87354
   A48        2.21014  -0.00071   0.00000  -0.00045  -0.00034   2.20980
   A49        2.17437   0.00279   0.00000   0.00880   0.00895   2.18333
   A50        2.06649   0.00423   0.00000   0.00760   0.00756   2.07406
   A51        2.10832  -0.00531   0.00000  -0.01205  -0.01206   2.09626
   A52        2.10726   0.00121   0.00000   0.00500   0.00498   2.11224
   A53        2.06054  -0.00384   0.00000  -0.00159  -0.00170   2.05884
   A54        2.10970   0.00210   0.00000   0.00124   0.00129   2.11099
   A55        2.11122   0.00191   0.00000   0.00068   0.00072   2.11194
   A56        2.06713   0.00230   0.00000   0.00461   0.00455   2.07168
   A57        2.10574   0.00182   0.00000   0.00577   0.00580   2.11154
   A58        2.11024  -0.00414   0.00000  -0.01040  -0.01037   2.09987
   A59        2.21843  -0.00590   0.00000  -0.02438  -0.02455   2.19388
   A60        1.94653   0.00026   0.00000   0.00178   0.00215   1.94868
   A61        2.11628   0.00566   0.00000   0.02279   0.02258   2.13886
   A62        1.76846   0.00688   0.00000   0.02771   0.02782   1.79628
   A63        1.92278  -0.00070   0.00000  -0.00458  -0.00459   1.91819
   A64        1.96573  -0.00415   0.00000  -0.01275  -0.01289   1.95284
   A65        1.96503   0.00063   0.00000  -0.00463  -0.00479   1.96024
   A66        1.95467  -0.00342   0.00000  -0.00486  -0.00473   1.94994
   A67        1.88680   0.00085   0.00000  -0.00031  -0.00037   1.88642
   A68        2.02657  -0.00374   0.00000  -0.01170  -0.01183   2.01474
   A69        1.50055  -0.00098   0.00000  -0.00474  -0.00457   1.49598
   A70        2.11107   0.00409   0.00000   0.01631   0.01633   2.12740
   A71        2.19317   0.01055   0.00000   0.02358   0.02365   2.21682
   A72        1.94055  -0.01417   0.00000  -0.03823  -0.03830   1.90225
   A73        1.82732   0.01466   0.00000   0.03255   0.03253   1.85985
   A74        2.22886  -0.01050   0.00000  -0.02488  -0.02487   2.20400
   A75        2.22550  -0.00418   0.00000  -0.00784  -0.00783   2.21768
   A76        1.91349  -0.00697   0.00000  -0.01251  -0.01242   1.90106
   A77        2.20614   0.00553   0.00000   0.01196   0.01191   2.21804
   A78        2.16125   0.00151   0.00000   0.00103   0.00097   2.16222
   A79        1.91856  -0.00597   0.00000  -0.00997  -0.00998   1.90858
   A80        2.15790   0.00122   0.00000   0.00026   0.00026   2.15816
   A81        2.20488   0.00477   0.00000   0.00984   0.00985   2.21472
   A82        1.53516   0.00768   0.00000   0.01751   0.01756   1.55272
   A83        1.98370  -0.00299   0.00000  -0.00379  -0.00382   1.97988
   A84        1.82476   0.01247   0.00000   0.02823   0.02823   1.85299
   A85        2.22418  -0.00835   0.00000  -0.01645  -0.01649   2.20769
   A86        2.23201  -0.00426   0.00000  -0.01229  -0.01227   2.21975
   A87        3.09037  -0.00824   0.00000  -0.02917  -0.02908   3.06129
   A88        3.11873  -0.00200   0.00000  -0.00403  -0.00411   3.11462
    D1        0.89415   0.00391   0.00000   0.01789   0.01789   0.91204
    D2       -1.47839  -0.00495   0.00000  -0.01717  -0.01712  -1.49551
    D3       -0.88954   0.00546   0.00000   0.01768   0.01783  -0.87171
    D4        3.02110  -0.00339   0.00000  -0.01738  -0.01718   3.00393
    D5       -1.47141  -0.00454   0.00000   0.00718   0.00729  -1.46412
    D6        2.43924  -0.01340   0.00000  -0.02788  -0.02771   2.41152
    D7        2.86020   0.00674   0.00000   0.02406   0.02399   2.88419
    D8        0.48766  -0.00212   0.00000  -0.01100  -0.01102   0.47664
    D9       -2.95550   0.00151   0.00000   0.01156   0.01144  -2.94406
   D10        0.95515  -0.00735   0.00000  -0.02350  -0.02357   0.93158
   D11       -2.41837   0.00132   0.00000   0.00989   0.00982  -2.40855
   D12       -0.31170   0.00472   0.00000   0.01989   0.01989  -0.29181
   D13       -0.77421  -0.00328   0.00000  -0.00808  -0.00808  -0.78229
   D14        1.33246   0.00011   0.00000   0.00192   0.00199   1.33445
   D15        0.66377  -0.00774   0.00000  -0.02171  -0.02160   0.64218
   D16        2.77044  -0.00435   0.00000  -0.01172  -0.01152   2.75892
   D17        1.35836  -0.00377   0.00000  -0.00657  -0.00656   1.35179
   D18       -2.81816  -0.00038   0.00000   0.00342   0.00351  -2.81465
   D19        2.01087  -0.00027   0.00000  -0.00181  -0.00177   2.00910
   D20       -2.16565   0.00312   0.00000   0.00818   0.00831  -2.15734
   D21        0.17404   0.00165   0.00000   0.01452   0.01438   0.18842
   D22        2.36824   0.00220   0.00000   0.01616   0.01613   2.38437
   D23        2.06393   0.00242   0.00000   0.00671   0.00665   2.07058
   D24       -2.02505   0.00298   0.00000   0.00836   0.00840  -2.01664
   D25       -3.02299  -0.00581   0.00000  -0.01014  -0.01013  -3.03312
   D26       -0.82878  -0.00526   0.00000  -0.00850  -0.00838  -0.83716
   D27       -1.93890   0.00156   0.00000   0.00551   0.00530  -1.93360
   D28        0.25530   0.00211   0.00000   0.00716   0.00705   0.26235
   D29       -1.43746   0.00318   0.00000   0.00785   0.00766  -1.42981
   D30        0.75674   0.00373   0.00000   0.00949   0.00941   0.76615
   D31        3.09785  -0.00351   0.00000  -0.02092  -0.02092   3.07694
   D32        0.95689  -0.00678   0.00000  -0.03422  -0.03432   0.92257
   D33        1.36737  -0.00267   0.00000  -0.00952  -0.00950   1.35788
   D34       -0.77359  -0.00594   0.00000  -0.02283  -0.02290  -0.79649
   D35       -0.00171   0.00388   0.00000   0.00666   0.00652   0.00481
   D36       -2.14267   0.00062   0.00000  -0.00664  -0.00688  -2.14955
   D37       -0.68569  -0.00061   0.00000  -0.00934  -0.00933  -0.69503
   D38       -2.82666  -0.00387   0.00000  -0.02265  -0.02273  -2.84939
   D39       -1.12303  -0.00632   0.00000  -0.01256  -0.01241  -1.13543
   D40        3.01920  -0.00959   0.00000  -0.02587  -0.02581   2.99339
   D41        0.39285  -0.00255   0.00000  -0.01600  -0.01597   0.37689
   D42       -1.89243  -0.00091   0.00000  -0.01032  -0.01035  -1.90278
   D43       -1.25633   0.00142   0.00000  -0.00280  -0.00281  -1.25914
   D44        2.74157   0.00306   0.00000   0.00287   0.00281   2.74438
   D45       -2.73277   0.00142   0.00000   0.00027   0.00033  -2.73244
   D46        1.26513   0.00305   0.00000   0.00595   0.00595   1.27108
   D47        2.44013  -0.00475   0.00000  -0.01688  -0.01686   2.42328
   D48        0.15485  -0.00311   0.00000  -0.01121  -0.01124   0.14362
   D49        2.30294  -0.00309   0.00000  -0.00945  -0.00924   2.29370
   D50        0.01766  -0.00146   0.00000  -0.00378  -0.00362   0.01404
   D51        1.05374  -0.00948   0.00000  -0.03488  -0.03465   1.01909
   D52       -2.22926  -0.00638   0.00000  -0.01902  -0.01894  -2.24820
   D53       -2.74897  -0.00913   0.00000  -0.02946  -0.02928  -2.77825
   D54        0.25122  -0.00602   0.00000  -0.01360  -0.01357   0.23765
   D55        2.15479   0.00572   0.00000   0.02640   0.02619   2.18098
   D56       -0.91990   0.00525   0.00000   0.02206   0.02196  -0.89793
   D57       -0.24977   0.00574   0.00000   0.01429   0.01430  -0.23547
   D58        2.95873   0.00527   0.00000   0.00995   0.01007   2.96880
   D59       -0.31884  -0.00791   0.00000  -0.00836  -0.00776  -0.32661
   D60        1.75853  -0.00092   0.00000   0.00557   0.00585   1.76437
   D61       -2.44282  -0.00321   0.00000  -0.00751  -0.00722  -2.45004
   D62        2.95184  -0.00924   0.00000  -0.01819  -0.01794   2.93390
   D63       -1.25397  -0.00225   0.00000  -0.00425  -0.00433  -1.25830
   D64        0.82787  -0.00454   0.00000  -0.01733  -0.01739   0.81047
   D65       -0.10757   0.00416   0.00000   0.01176   0.01162  -0.09596
   D66        3.08425   0.00110   0.00000  -0.00085  -0.00088   3.08337
   D67        2.88457   0.00726   0.00000   0.02697   0.02683   2.91140
   D68       -0.20679   0.00419   0.00000   0.01437   0.01434  -0.19246
   D69       -0.33147  -0.00080   0.00000  -0.00457  -0.00426  -0.33573
   D70        1.26304  -0.00759   0.00000  -0.02346  -0.02307   1.23997
   D71       -2.00262  -0.00305   0.00000  -0.00222  -0.00194  -2.00455
   D72       -2.40054   0.00187   0.00000   0.00137   0.00137  -2.39917
   D73       -0.80602  -0.00492   0.00000  -0.01751  -0.01744  -0.82347
   D74        2.21150  -0.00037   0.00000   0.00372   0.00369   2.21520
   D75        1.77976   0.00165   0.00000   0.00479   0.00490   1.78466
   D76       -2.90891  -0.00514   0.00000  -0.01409  -0.01391  -2.92282
   D77        0.10862  -0.00060   0.00000   0.00714   0.00723   0.11584
   D78        3.09708   0.00053   0.00000  -0.00113  -0.00129   3.09579
   D79       -0.04665   0.00182   0.00000   0.01224   0.01220  -0.03445
   D80        0.06753  -0.00363   0.00000  -0.02068  -0.02071   0.04682
   D81       -3.07620  -0.00234   0.00000  -0.00732  -0.00722  -3.08342
   D82        1.28228   0.00098   0.00000   0.01993   0.01985   1.30212
   D83       -2.03467  -0.00111   0.00000   0.00759   0.00762  -2.02705
   D84       -3.10064   0.00331   0.00000   0.01579   0.01543  -3.08521
   D85       -0.13440   0.00122   0.00000   0.00345   0.00320  -0.13120
   D86       -0.05624   0.00616   0.00000   0.03049   0.03040  -0.02584
   D87        2.90999   0.00407   0.00000   0.01815   0.01818   2.92817
   D88       -1.22399   0.00567   0.00000   0.00472   0.00474  -1.21925
   D89        1.97336   0.00547   0.00000   0.00948   0.00952   1.98288
   D90       -0.05643   0.00078   0.00000   0.00474   0.00470  -0.05174
   D91        3.14091   0.00058   0.00000   0.00950   0.00948  -3.13280
   D92        3.08724  -0.00049   0.00000  -0.00830  -0.00832   3.07892
   D93        0.00140  -0.00069   0.00000  -0.00354  -0.00354  -0.00214
   D94        0.02003   0.00371   0.00000   0.01513   0.01525   0.03528
   D95       -3.08132  -0.00008   0.00000   0.00035   0.00033  -3.08098
   D96        3.10463   0.00381   0.00000   0.01001   0.01009   3.11472
   D97        0.00328   0.00002   0.00000  -0.00477  -0.00483  -0.00155
   D98        0.02098  -0.00556   0.00000  -0.02732  -0.02743  -0.00645
   D99       -2.94973  -0.00310   0.00000  -0.01420  -0.01432  -2.96405
   D100       3.12297  -0.00177   0.00000  -0.01262  -0.01265   3.11032
   D101       0.15226   0.00069   0.00000   0.00050   0.00045   0.15272
   D102      -0.07403   0.00173   0.00000   0.00034   0.00025  -0.07378
   D103       3.13028  -0.00124   0.00000  -0.00571  -0.00571   3.12457
   D104       3.01737   0.00460   0.00000   0.01242   0.01235   3.02972
   D105      -0.06151   0.00163   0.00000   0.00638   0.00639  -0.05512
   D106       0.07494  -0.00126   0.00000   0.00097   0.00105   0.07599
   D107      -3.07939  -0.00259   0.00000  -0.00122  -0.00111  -3.08050
   D108      -3.12942   0.00172   0.00000   0.00704   0.00703  -3.12239
   D109      -0.00057   0.00038   0.00000   0.00486   0.00487   0.00431
   D110       0.10504  -0.00443   0.00000  -0.01412  -0.01398   0.09106
   D111      -3.10937  -0.00416   0.00000  -0.01036  -0.01029  -3.11965
   D112      -3.02378  -0.00314   0.00000  -0.01205  -0.01196  -3.03573
   D113       0.04500  -0.00287   0.00000  -0.00829  -0.00826   0.03674
   D114       0.72827   0.00512   0.00000   0.01076   0.01066   0.73894
   D115      -1.35561   0.00102   0.00000   0.00328   0.00322  -1.35239
   D116       2.81954   0.00323   0.00000   0.01552   0.01541   2.83495
   D117      -2.35091   0.00518   0.00000   0.00873   0.00863  -2.34227
   D118       1.84839   0.00107   0.00000   0.00126   0.00120   1.84959
   D119      -0.25965   0.00329   0.00000   0.01350   0.01338  -0.24626
   D120      -0.38020  -0.00165   0.00000  -0.00216  -0.00227  -0.38248
   D121       1.39488  -0.00307   0.00000  -0.00659  -0.00678   1.38810
   D122      -2.06741  -0.00365   0.00000  -0.00650  -0.00645  -2.07386
   D123       1.67325   0.00177   0.00000   0.00635   0.00629   1.67954
   D124      -2.83485   0.00035   0.00000   0.00192   0.00178  -2.83307
   D125      -0.01395  -0.00023   0.00000   0.00200   0.00210  -0.01185
   D126      -2.47931   0.00080   0.00000  -0.00109  -0.00117  -2.48049
   D127      -0.70423  -0.00061   0.00000  -0.00552  -0.00569  -0.70991
   D128       2.11667  -0.00120   0.00000  -0.00544  -0.00536   2.11131
   D129      -1.34389  -0.00216   0.00000  -0.00857  -0.00870  -1.35259
   D130       1.85338  -0.00168   0.00000  -0.00571  -0.00585   1.84753
   D131       2.87657   0.00194   0.00000   0.00446   0.00451   2.88108
   D132      -0.20935   0.00242   0.00000   0.00732   0.00737  -0.20198
   D133       0.01324  -0.00129   0.00000  -0.00467  -0.00458   0.00866
   D134      -3.07268  -0.00081   0.00000  -0.00182  -0.00172  -3.07441
   D135      -2.85611  -0.00069   0.00000  -0.00417  -0.00417  -2.86029
   D136       0.21788  -0.00272   0.00000  -0.01198  -0.01197   0.20591
   D137      -0.00867   0.00118   0.00000   0.00336   0.00329  -0.00538
   D138       3.06532  -0.00085   0.00000  -0.00445  -0.00451   3.06082
   D139      -0.01222   0.00070   0.00000   0.00375   0.00376  -0.00845
   D140      -3.08268  -0.00032   0.00000  -0.00346  -0.00344  -3.08611
   D141       3.07385  -0.00005   0.00000   0.00016   0.00016   3.07401
   D142       0.00339  -0.00108   0.00000  -0.00704  -0.00703  -0.00365
   D143       0.00758  -0.00020   0.00000  -0.00229  -0.00222   0.00536
   D144      -3.07239  -0.00072   0.00000  -0.00481  -0.00472  -3.07710
   D145       3.08025   0.00101   0.00000   0.00526   0.00526   3.08552
   D146       0.00029   0.00048   0.00000   0.00274   0.00277   0.00305
   D147       1.13793   0.00051   0.00000   0.00188   0.00204   1.13996
   D148       0.00092  -0.00068   0.00000  -0.00076  -0.00076   0.00016
   D149      -3.07266   0.00157   0.00000   0.00731   0.00731  -3.06535
   D150      -2.06735   0.00088   0.00000   0.00404   0.00418  -2.06318
   D151       3.07882  -0.00031   0.00000   0.00140   0.00138   3.08021
   D152       0.00524   0.00194   0.00000   0.00946   0.00945   0.01470
         Item               Value     Threshold  Converged?
 Maximum Force            0.072813     0.000450     NO 
 RMS     Force            0.010332     0.000300     NO 
 Maximum Displacement     0.154059     0.001800     NO 
 RMS     Displacement     0.028706     0.001200     NO 
 Predicted change in Energy=-4.032803D-02
 GradGradGradGradGradGradGradGradGradGradGradGradGradGradGradGradGradGrad

 Leave Link  103 at Mon Sep 15 12:50:21 2025, MaxMem=    33554432 cpu:         0.0
 (Enter /appl/g09.shchoi/G09Files/g09/l202.exe)
                          Input orientation:                          
 ---------------------------------------------------------------------
[...]
 ! D136  D(16,17,21,36)         -7.7107         -DE/DX =    0.0                 !
 ! D137  D(18,17,21,20)          1.1934         -DE/DX =    0.0                 !
 ! D138  D(18,17,21,36)        172.3331         -DE/DX =    0.0                 !
 ! D139  D(17,18,19,20)          1.9849         -DE/DX =    0.0                 !
 ! D140  D(17,18,19,34)       -174.0389         -DE/DX =    0.0                 !
 ! D141  D(33,18,19,20)        175.7317         -DE/DX =    0.0                 !
 ! D142  D(33,18,19,34)         -0.2922         -DE/DX =    0.0                 !
 ! D143  D(18,19,20,21)         -1.2494         -DE/DX =    0.0                 !
 ! D144  D(18,19,20,35)       -172.645          -DE/DX =    0.0                 !
 ! D145  D(34,19,20,21)        174.7596         -DE/DX =    0.0                 !
 ! D146  D(34,19,20,35)          3.364          -DE/DX =    0.0                 !
 ! D147  D(19,20,21,1)          65.4886         -DE/DX =    0.0                 !
 ! D148  D(19,20,21,17)          0.0312         -DE/DX =    0.0                 !
 ! D149  D(19,20,21,36)       -171.0315         -DE/DX =    0.0                 !
 ! D150  D(35,20,21,1)        -123.1547         -DE/DX =    0.0                 !
 ! D151  D(35,20,21,17)        171.3879         -DE/DX =    0.0                 !
 ! D152  D(35,20,21,36)          0.3253         -DE/DX =    0.0                 !
 --------------------------------------------------------------------------------
 GradGradGradGradGradGradGradGradGradGradGradGradGradGradGradGradGradGrad

 Largest change from initial coordinates is atom   34       1.525 Angstoms.
 Leave Link  103 at Mon Sep 15 12:50:35 2025, MaxMem=    33554432 cpu:         0.0
 (Enter /appl/g09.shchoi/G09Files/g09/l202.exe)
                          Input orientation:                          
 ---------------------------------------------------------------------
 Center     Atomic      Atomic             Coordinates (Angstroms)
 Number     Number       Type             X           Y           Z
 ---------------------------------------------------------------------
      1         40           0       -0.061068   -0.107435   -0.330565
      2         17           0        0.647344   -0.249738   -2.600519
      3         17           0        2.260845   -0.274301    0.109841
      4          7           0        0.352880   -0.044192    2.157461
      5          6           0        0.745696    1.100606    2.723032
      6          6           0        0.575863    2.365358    1.920673
      7          6           0       -0.227729    2.133033    0.674477
      8          6           0       -1.561230    1.656040    0.637621
      9          6           0       -1.963669    1.599935   -0.716136
     10          6           0       -0.890199    2.038306   -1.509742
     11          6           0        0.196313    2.342936   -0.659591
     12          6           0        1.319181    1.144079    3.988633
     13          6           0        1.506901   -0.037946    4.682539
     14          6           0        1.128476   -1.225211    4.081676
     15          6           0        0.561365   -1.189387    2.812928
     16          6           0        0.186516   -2.469456    2.110668
     17          6           0       -0.573559   -2.210019    0.842718
     18          6           0       -0.191348   -2.586666   -0.467127
     19          6           0       -1.218746   -2.182331   -1.348542
     20          6           0       -2.207736   -1.520420   -0.601423
     21          6           0       -1.815521   -1.533877    0.756496
     22          1           0        0.103734    3.127338    2.551880
     23          1           0        1.573946    2.730364    1.652524
     24          1           0       -2.201098    1.514322    1.499979
     25          1           0       -2.966387    1.402332   -1.070556
     26          1           0       -0.912069    2.185649   -2.580938
     27          1           0        1.146272    2.767281   -0.968046
     28          1           0        1.618363    2.090499    4.411121
     29          1           0        1.949881   -0.034933    5.666971
     30          1           0        1.275261   -2.171461    4.578451
     31          1           0       -0.400317   -3.092946    2.795382
     32          1           0        1.111462   -3.010856    1.881320
     33          1           0        0.679228   -3.177527   -0.732833
     34          1           0       -1.266492   -2.407223   -2.405324
     35          1           0       -3.167865   -1.196085   -0.979700
     36          1           0       -2.422886   -1.227015    1.599189
 ---------------------------------------------------------------------
                    Distance matrix (angstroms):
                    1          2          3          4          5
     1  Zr   0.000000
     2  Cl   2.382181   0.000000
     3  Cl   2.369195   3.154369   0.000000
     4  N    2.523019   4.771512   2.808207   0.000000
     5  C    3.381521   5.493022   3.318857   1.335941   0.000000
     6  C    3.404183   5.223506   3.617468   2.431403   1.507389
     7  C    2.461216   4.143543   3.508143   2.697528   2.491995
     8  C    2.509525   4.358364   4.314282   2.977335   3.159012
     9  C    2.585279   3.713432   4.694839   4.040682   4.406571
    10  C    2.584980   2.964621   4.230872   4.396638   4.633769
    11  C    2.485723   3.269952   3.421147   3.695764   3.645181
    12  C    4.703918   6.768383   4.235984   2.387240   1.390151
    13  C    5.253053   7.336663   4.640459   2.776296   2.390690
    14  C    4.704498   6.770137   4.238155   2.387248   2.720635
    15  C    3.382246   5.495064   3.321489   1.335879   2.299157
    16  C    3.405886   5.228268   3.622824   2.431413   3.665107
    17  C    2.461726   4.145983   3.509694   2.697711   4.029423
    18  C    2.486405   3.273529   3.419529   3.694431   4.964992
    19  C    2.584895   2.963891   4.227885   4.397010   5.586986
    20  C    2.584197   3.709783   4.693285   4.043198   5.161835
    21  C    2.508893   4.357093   4.315258   2.980575   4.167445
    22  H    4.335828   6.184445   4.710396   3.205658   2.132851
    23  H    3.828710   5.275223   3.446696   3.073130   2.118513
    24  H    3.249725   5.295244   5.004057   3.063340   3.217237
    25  H    3.356764   4.257837   5.615015   4.850780   5.316194
    26  H    3.323645   2.891931   4.833118   5.387459   5.661943
    27  H    3.182459   3.466454   3.413991   4.278160   4.069684
    28  H    5.489535   7.455379   4.950361   3.352214   2.142681
    29  H    6.326106   8.372224   5.570968   3.855795   3.377319
    30  H    5.490393   7.458211   4.953692   3.352201   3.798611
    31  H    4.335886   6.188471   4.715790   3.204551   4.347926
    32  H    3.833682   5.284511   3.456581   3.074540   4.212646
    33  H    3.183602   3.472925   3.411793   4.275288   5.499985
    34  H    3.323657   2.890607   4.828822   5.387513   6.530988
    35  H    3.355402   4.251876   5.613171   4.854306   5.856704
    36  H    3.248937   5.293291   5.006312   3.068487   4.089102
                    6          7          8          9         10
     6  C    0.000000
     7  C    1.500913   0.000000
     8  C    2.591625   1.416724   0.000000
     9  C    3.740034   2.287244   1.413422   0.000000
    10  C    3.744870   2.284437   2.282012   1.405104   0.000000
    11  C    2.608126   1.415488   2.289878   2.284900   1.412821
    12  C    2.514061   3.788745   4.448388   5.754977   5.992757
    13  C    3.777645   4.877156   5.352044   6.623684   6.957101
    14  C    4.226996   4.972534   5.234275   6.368815   6.781559
    15  C    3.665043   4.029158   4.163391   5.158527   5.586637
    16  C    4.854185   4.839127   4.716376   5.401301   5.881038
    17  C    4.839135   4.360046   3.995494   4.344902   4.866476
    18  C    5.550923   4.855939   4.593213   4.553104   4.792265
    19  C    5.881314   4.867965   4.335346   3.906453   4.236473
    20  C    5.404504   4.346961   3.470317   3.131986   3.901984
    21  C    4.719964   3.996754   3.202244   3.465742   4.330421
    22  H    1.096331   2.150151   2.932782   4.157769   4.320956
    23  H    1.096040   2.135278   3.466054   4.404899   4.068277
    24  H    2.934750   2.226756   1.083132   2.230441   3.324370
    25  H    4.735231   3.328561   2.226366   1.081714   2.215380
    26  H    4.744548   3.326983   3.325811   2.219552   1.081503
    27  H    2.971802   2.233390   3.338202   3.331349   2.229810
    28  H    2.713796   4.168018   4.953572   6.273785   6.430570
    29  H    4.656616   5.862342   6.362519   7.663728   7.991845
    30  H    5.304307   6.002388   6.182685   7.262695   7.712163
    31  H    5.613477   5.642595   5.343830   6.066132   6.715938
    32  H    5.402971   5.450642   5.519963   6.120670   6.403123
    33  H    6.146165   5.568226   5.501015   5.459791   5.501963
    34  H    6.699705   5.583738   5.084928   4.404171   4.550428
    35  H    5.925500   4.739592   3.651250   3.055697   3.991240
    36  H    4.690521   4.118705   3.158967   3.682833   4.762028
                   11         12         13         14         15
    11  C    0.000000
    12  C    4.929916   0.000000
    13  C    5.993712   1.383448   0.000000
    14  C    6.006680   2.378773   1.383416   0.000000
    15  C    4.966785   2.720594   2.390669   1.390187   0.000000
    16  C    5.552796   4.226975   3.777588   2.514022   1.507401
    17  C    4.855824   4.972848   4.877544   3.789145   2.492282
    18  C    4.948565   6.004495   5.991584   4.928195   3.643861
    19  C    4.791146   6.781704   6.957116   5.992728   4.633849
    20  C    4.550643   6.372387   6.626953   5.757506   4.408548
    21  C    4.591563   5.238752   5.356315   4.451878   3.161830
    22  H    3.307174   2.734024   4.065416   4.725998   4.348757
    23  H    2.719163   2.835244   4.104757   4.663239   4.211449
    24  H    3.331354   4.326990   5.127132   5.025561   4.082288
    25  H    3.325102   6.635374   7.428513   7.086422   5.851793
    26  H    2.223696   7.015883   7.972069   7.758106   6.531130
    27  H    1.085189   5.218558   6.318897   6.437391   5.503917
    28  H    5.272388   1.078757   2.148574   3.367856   3.798568
    29  H    6.982453   2.145850   1.079513   2.145840   3.377322
    30  H    6.998642   3.367881   2.148576   1.078759   2.142707
    31  H    6.468509   4.725770   4.065940   2.734995   2.132763
    32  H    5.996400   4.663411   4.103827   2.833794   2.118549
    33  H    5.542028   6.432578   6.314132   5.214677   4.066818
    34  H    5.267959   7.757586   7.971385   7.015283   5.661655
    35  H    4.893346   7.091847   7.433416   6.639045   5.318950
    36  H    4.970597   5.033348   5.134603   4.333003   3.221852
                   16         17         18         19         20
    16  C    0.000000
    17  C    1.500906   0.000000
    18  C    2.607978   1.415501   0.000000
    19  C    3.744774   2.284437   1.412772   0.000000
    20  C    3.740127   2.287275   2.284894   1.405138   0.000000
    21  C    2.591764   1.416712   2.289881   2.282063   1.413491
    22  H    5.614768   5.645116   6.469260   6.719733   6.073538
    23  H    5.401202   5.447472   5.989991   6.398444   6.119686
    24  H    4.684456   4.117231   4.972596   4.769101   3.691286
    25  H    5.920450   4.736594   4.896639   3.997666   3.055833
    26  H    6.699856   5.581927   5.269026   4.548857   4.396838
    27  H    6.150043   5.568680   5.541200   5.498794   5.456020
    28  H    5.304287   6.002706   6.996302   7.712326   7.266593
    29  H    4.656571   5.862778   6.980212   7.991804   7.667152
    30  H    2.713691   4.168372   5.270787   6.430352   6.275844
    31  H    1.096333   2.149993   3.308165   4.321013   4.156668
    32  H    1.096011   2.135259   2.718907   4.067964   4.404826
    33  H    2.971469   2.233362   1.085181   2.229757   3.331341
    34  H    4.744396   3.326984   2.223678   1.081501   2.219553
    35  H    4.735369   3.328618   3.325072   2.215354   1.081728
    36  H    2.935004   2.226782   3.331378   3.324410   2.230487
                   21         22         23         24         25
    21  C    0.000000
    22  H    5.351063   0.000000
    23  H    5.520426   1.768602   0.000000
    24  H    3.161164   3.003425   3.969003   0.000000
    25  H    3.644713   5.052062   5.458339   2.684373   0.000000
    26  H    5.078343   5.316432   4.939553   4.331992   2.667408
    27  H    5.499657   3.688686   2.655496   4.343494   4.334462
    28  H    6.187403   2.612645   2.832182   4.836839   7.179297
    29  H    6.366935   4.807495   4.889170   6.082322   8.463433
    30  H    4.956490   5.792818   5.716481   5.928496   7.916746
    31  H    2.930965   6.245422   6.254181   5.113492   6.460473
    32  H    3.466111   6.256404   5.764361   5.621006   6.694674
    33  H    3.338181   7.132450   6.433788   5.940974   5.863418
    34  H    3.325848   7.555313   7.136457   5.612789   4.379949
    35  H    2.226503   6.470503   6.695550   3.798652   2.607800
    36  H    1.083139   5.123653   5.624799   2.752083   3.786344
                   26         27         28         29         30
    26  H    0.000000
    27  H    2.678896   0.000000
    28  H    7.436466   5.442090   0.000000
    29  H    9.008316   7.247182   2.490888   0.000000
    30  H    8.661737   7.427748   4.279022   2.490932   0.000000
    31  H    7.551839   7.134255   5.792563   4.808420   2.614581
    32  H    7.142135   6.442590   5.716701   4.887762   2.829476
    33  H    5.891636   5.967763   7.422556   7.242096   5.438489
    34  H    4.609874   5.887503   8.661167   9.007484   7.435671
    35  H    4.369063   5.858344   7.922789   8.468639   7.182324
    36  H    5.603777   5.940033   5.936713   6.090074   4.841928
                   31         32         33         34         35
    31  H    0.000000
    32  H    1.768538   0.000000
    33  H    3.690647   2.654882   0.000000
    34  H    5.316749   4.939064   2.678884   0.000000
    35  H    5.050609   5.458157   4.334418   2.667298   0.000000
    36  H    3.000560   3.969043   4.343493   4.332005   2.684515
                   36
    36  H    0.000000
 Stoichiometry    C17H15Cl2NZr
 Framework group  C1[X(C17H15Cl2NZr)]
 Deg. of freedom   102
 Full point group                 C1      NOp   1
 RotChk:  IX=0 Diff= 1.92D-15
 Largest Abelian subgroup         C1      NOp   1
 Largest concise Abelian subgroup C1      NOp   1
                         Standard orientation:                         
 ---------------------------------------------------------------------
 Center     Atomic      Atomic             Coordinates (Angstroms)
 Number     Number       Type             X           Y           Z
 ---------------------------------------------------------------------
      1         40           0       -0.830866   -0.000039    0.089211
      2         17           0       -2.797586   -0.002235    1.433381
      3         17           0        0.264728   -0.001402    2.189867
      4          7           0        1.670426    0.000106   -0.241190
      5          6           0        2.341679   -1.149606   -0.130200
      6          6           0        1.542202   -2.426884   -0.170467
      7          6           0        0.112830   -2.179695   -0.555864
      8          6           0       -0.317620   -1.599986   -1.774780
      9          6           0       -1.730536   -1.564368   -1.762040
     10          6           0       -2.170731   -2.116995   -0.547483
     11          6           0       -1.036727   -2.473985    0.215836
     12          6           0        3.719946   -1.189641    0.046711
     13          6           0        4.422042   -0.000376    0.128170
     14          6           0        3.720641    1.189131    0.044813
     15          6           0        2.342316    1.149550   -0.132035
     16          6           0        1.543689    2.427300   -0.174561
     17          6           0        0.112983    2.180351   -0.555106
     18          6           0       -1.033696    2.474577    0.220909
     19          6           0       -2.170585    2.119469   -0.538899
     20          6           0       -1.735039    1.567608   -1.755518
     21          6           0       -0.322082    1.602255   -1.773135
     22          1           0        2.018885   -3.123984   -0.869584
     23          1           0        1.581622   -2.880155    0.826676
     24          1           0        0.318793   -1.374667   -2.621766
     25          1           0       -2.364479   -1.301510   -2.598179
     26          1           0       -3.199664   -2.303376   -0.271421
     27          1           0       -1.049065   -2.984093    1.173580
     28          1           0        4.224314   -2.139832    0.127133
     29          1           0        5.492783   -0.000589    0.265514
     30          1           0        4.225510    2.139188    0.123676
     31          1           0        2.018988    3.121432   -0.877567
     32          1           0        1.586388    2.884201    0.820757
     33          1           0       -1.042301    2.983663    1.179228
     34          1           0       -3.198413    2.306482   -0.259182
     35          1           0       -2.372181    1.306264   -2.589715
     36          1           0        0.311190    1.377406   -2.622605
 ---------------------------------------------------------------------
 Rotational constants (GHZ):      0.4148512      0.2659376      0.2258772
 Leave Link  202 at Mon Sep 15 12:50:35 2025, MaxMem=    33554432 cpu:         0.0
 (Enter /appl/g09.shchoi/G09Files/g09/l601.exe)
 Leave Link  601 at Mon Sep 15 12:50:35 2025, MaxMem=    33554432 cpu:         0.0
 (Enter /appl/g09.shchoi/G09Files/g09/l9999.exe)
 1\1\GINC-MASTER\FOpt\RExternal='/home/rxn_grp/programs/xtb-gaussian'\Z
 DO\C17H15Cl2N1Zr1\RXN_GRP\15-Sep-2025\0\\#p external='/home/rxn_grp/pr
 ograms/xtb-gaussian' /sdd opt(nomicro)\\R\\0,1\Zr,-0.0610681117,-0.107
 4351722,-0.3305648976\Cl,0.6473436836,-0.2497384388,-2.6005186259\Cl,2
 .2608451036,-0.2743009469,0.1098412909\N,0.3528801761,-0.0441922715,2.
 1574613154\C,0.7456964056,1.1006057374,2.723031982\C,0.5758628122,2.36
 53579742,1.9206730164\C,-0.2277285448,2.1330330033,0.6744769626\C,-1.5
 612302583,1.6560399878,0.6376212475\C,-1.9636688509,1.5999345028,-0.71
 61359217\C,-0.890198805,2.0383060064,-1.5097421191\C,0.1963130427,2.34
 29355934,-0.6595907828\C,1.3191814127,1.1440790324,3.9886330676\C,1.50
 69008747,-0.0379461147,4.6825386708\C,1.1284760423,-1.2252106506,4.081
 6757774\C,0.5613647284,-1.1893867852,2.8129276973\C,0.1865160692,-2.46
 94559114,2.1106681681\C,-0.5735585034,-2.2100187679,0.8427178805\C,-0.
 1913478077,-2.5866663181,-0.467127005\C,-1.2187455865,-2.1823305045,-1
 .3485415627\C,-2.2077359114,-1.5204197027,-0.6014234357\C,-1.815520724
 8,-1.533877332,0.7564955709\H,0.1037338931,3.1273380042,2.5518796342\H
 ,1.5739457215,2.7303643414,1.6525241079\H,-2.2010976633,1.5143222512,1
 .4999787886\H,-2.9663874033,1.4023315347,-1.070556275\H,-0.9120687053,
 2.1856494578,-2.5809381029\H,1.146272163,2.7672808618,-0.9680463063\H,
 1.6183634001,2.0904992094,4.4111210797\H,1.949881156,-0.03493299,5.666
 9711592\H,1.2752609101,-2.1714612791,4.5784512362\H,-0.4003173303,-3.0
 929459226,2.7953822452\H,1.1114620782,-3.0108562658,1.8813198096\H,0.6
 792278183,-3.1775267228,-0.732833021\H,-1.2664921252,-2.4072233356,-2.
 405323905\H,-3.1678654159,-1.1960854027,-0.9797002001\H,-2.4228859613,
 -1.2270150822,1.5991893676\\Version=ES64L-G09RevD.01\HF=-57.9163336\RM
 SD=0.000e+00\RMSF=2.445e-06\Dipole=-1.3055009,0.2254643,3.2066039\PG=C
 01 [X(C17H15Cl2N1Zr1)]\\@


 COLLEGE PROFESSOR: SOMEONE WHO TALKS IN OTHER PEOPLE'S SLEEP.
 Job cpu time:       0 days  0 hours  0 minutes  2.3 seconds.
 File lengths (MBytes):  RWF=      9 Int=      0 D2E=      0 Chk=      3 Scr=      1
 Normal termination of Gaussian 09 at Mon Sep 15 12:50:35 2025.
