 Entering Gaussian System, Link 0=g09
 Input=final_relax_3.com
 Output=final_relax_3.log
 Initial command:
 /appl/g09.shchoi/G09Files/g09/l1.exe "/home/rxn_grp/scratch/Gau-2485211.inp" -scrdir="/home/rxn_grp/scratch/"
 Entering Link 1 = /appl/g09.shchoi/G09Files/g09/l1.exe PID=   2485213.
  
 Copyright (c) 1988,1990,1992,1993,1995,1998,2003,2009,2013,
            Gaussian, Inc.  All Rights Reserved.
  
 This is part of the Gaussian(R) 09 program.  It is based on
 the Gaussian(R) 03 system (copyright 2003, Gaussian, Inc.),
 the Gaussian(R) 98 system (copyright 1998, Gaussian, Inc.),
 the Gaussian(R) 94 system (copyright 1995, Gaussian, Inc.),
 the Gaussian 92(TM) system (copyright 1992, Gaussian, Inc.),
 the Gaussian 90(TM) system (copyright 1990, Gaussian, Inc.),
 the Gaussian 88(TM) system (copyright 1988, Gaussian, Inc.),
 the Gaussian 86(TM) system (copyright 1986, Carnegie Mellon
 University), and the Gaussian 82(TM) system (copyright 1983,
 Carnegie Mellon University). Gaussian is a federally registered
 trademark of Gaussian, Inc.
  
 This software contains proprietary and confidential information,
 including trade secrets, belonging to Gaussian, Inc.
  
 This software is provided under written license and may be
 used, copied, transmitted, or stored only in accord with that
 written license.
  
 The following legend is applicable only to US Government
 contracts under FAR:
  
                    RESTRICTED RIGHTS LEGEND
  
 Use, reproduction and disclosure by the US Government is
 subject to restrictions as set forth in subparagraphs (a)
 and (c) of the Commercial Computer Software - Restricted
 Rights clause in FAR 52.227-19.
  
 Gaussian, Inc.
 340 Quinnipiac St., Bldg. 40, Wallingford CT 06492
  
  
 ---------------------------------------------------------------
 Warning -- This program may not be used in any manner that
 competes with the business of Gaussian, Inc. or will provide
 assistance to any competitor of Gaussian, Inc.  The licensee
 of this program is prohibited from giving any competitor of
 Gaussian, Inc. access to this program.  By using this program,
 the user acknowledges that Gaussian, Inc. is engaged in the
 business of creating and licensing software in the field of
 computational chemistry and represents and warrants to the
 licensee that it is not a competitor of Gaussian, Inc. and that
 it will not use this program in any manner prohibited above.
 ---------------------------------------------------------------
  

 Cite this work as:
 Gaussian 09, Revision D.01,
 M. J. Frisch, G. W. Trucks, H. B. Schlegel, G. E. Scuseria, 
 M. A. Robb, J. R. Cheeseman, G. Scalmani, V. Barone, B. Mennucci, 
 G. A. Petersson, H. Nakatsuji, M. Caricato, X. Li, H. P. Hratchian, 
 A. F. Izmaylov, J. Bloino, G. Zheng, J. L. Sonnenberg, M. Hada, 
 M. Ehara, K. Toyota, R. Fukuda, J. Hasegawa, M. Ishida, T. Nakajima, 
 Y. Honda, O. Kitao, H. Nakai, T. Vreven, J. A. Montgomery, Jr., 
 J. E. Peralta, F. Ogliaro, M. Bearpark, J. J. Heyd, E. Brothers, 
 K. N. Kudin, V. N. Staroverov, T. Keith, R. Kobayashi, J. Normand, 
 K. Raghavachari, A. Rendell, J. C. Burant, S. S. Iyengar, J. Tomasi, 
 M. Cossi, N. Rega, J. M. Millam, M. Klene, J. E. Knox, J. B. Cross, 
 V. Bakken, C. Adamo, J. Jaramillo, R. Gomperts, R. E. Stratmann, 
 O. Yazyev, A. J. Austin, R. Cammi, C. Pomelli, J. W. Ochterski, 
 R. L. Martin, K. Morokuma, V. G. Zakrzewski, G. A. Voth, 
 P. Salvador, J. J. Dannenberg, S. Dapprich, A. D. Daniels, 
 O. Farkas, J. B. Foresman, J. V. Ortiz, J. Cioslowski, 
 and D. J. Fox, Gaussian, Inc., Wallingford CT, 2013.
 
 ******************************************
 Gaussian 09:  ES64L-G09RevD.01 24-Apr-2013
                15-Sep-2025 
 ******************************************
 -------------------------------------------------------------------
 #p external='/home/rxn_grp/programs/xtb-gaussian' /sdd opt(nomicro)
 -------------------------------------------------------------------
 1/14=-1,18=20,19=15,26=1,38=1/1,3;
 2/9=110,12=2,17=6,18=5,40=1/2;
 3/5=17,6=7,11=9,16=1,25=1,30=1,41=9900000,43=2,71=1/1;
 4/20=17,22=1,24=3,113=1,114=1/2;
 6/7=2,8=2,9=2,10=2/1;
 7/44=-1/16;
 1/14=-1,18=20,19=15,26=1/3(2);
 2/9=110/2;
 99//99;
 2/9=110/2;
 3/5=17,6=7,11=9,16=1,25=1,30=1,41=9900000,43=2,71=1/1;
 4/16=2,20=17,22=1,24=3,113=1,114=1/2;
 7/44=-1/16;
 1/14=-1,18=20,19=15,26=1/3(-4);
 2/9=110/2;
 6/7=2,8=2,9=2,10=2/1;
 99//99;
 Leave Link    1 at Mon Sep 15 12:50:35 2025, MaxMem=           0 cpu:         0.0
 (Enter /appl/g09.shchoi/G09Files/g09/l101.exe)
 -
 R
 -
 Symbolic Z-matrix:
 Charge =  0 Multiplicity = 1
 Zr                   -0.00016  -0.00019  -0.00024 
 Cl                    0.        0.       -2.21604 
 Cl                    2.21598   0.        0. 
 N                     0.06324  -0.10583   1.96411 
 C                    -0.14848   1.01949   2.63552 
 C                    -0.92621   1.79026   1.6836 
 C                     0.06617   1.65592   0.22253 
 C                    -0.75144   1.50732  -0.89165 
 C                    -2.0326    2.0086   -0.66319 
 C                    -1.43179   3.10302  -0.04109 
 C                     0.26742   3.05882   0.10049 
 C                     0.3413    1.29758   3.90052 
 C                     1.11679   0.327     4.51265 
 C                     1.35182  -0.86311   3.83866 
 C                     0.81846  -1.05225   2.57189 
 C                     0.96517  -2.29287   1.74953 
 C                    -0.08638  -2.07926   0.6802 
 C                    -0.07628  -2.64124  -0.65581 
 C                    -1.31431  -2.32649  -1.15121 
 C                    -2.15637  -1.78567  -0.06414 
 C                    -1.52438  -2.05506   1.09558 
 H                    -1.89377   1.27921   1.56802 
 H                    -1.08797   2.81317   2.01893 
 H                    -0.32536   2.05561  -1.74851 
 H                    -3.03546   1.80936  -0.97814 
 H                    -1.96839   4.01661   0.2141 
 H                     0.80902   3.49652  -0.73949 
 H                     0.12891   2.24246   4.37363 
 H                     1.53322   0.49279   5.49423 
 H                     1.95543  -1.6397    4.28153 
 H                     0.80539  -3.19076   2.35943 
 H                     1.96958  -2.34354   1.31284 
 H                     0.78969  -3.00183  -1.19483 
 H                    -1.67234  -2.48117  -2.1586 
 H                    -3.22438  -1.64187  -0.19979 
 H                    -1.87162  -1.86303   2.10639 
 
 NAtoms=     36 NQM=       36 NQMF=       0 NMMI=      0 NMMIF=      0
                NMic=       0 NMicF=      0.
                    Isotopes and Nuclear Properties:
 (Nuclear quadrupole moments (NQMom) in fm**2, nuclear magnetic moments (NMagM)
  in nuclear magnetons)

  Atom         1           2           3           4           5           6           7           8           9          10
 IAtWgt=          90          35          35          14          12          12          12          12          12          12
 AtmWgt=  89.9043000  34.9688527  34.9688527  14.0030740  12.0000000  12.0000000  12.0000000  12.0000000  12.0000000  12.0000000
 NucSpn=           0           3           3           2           0           0           0           0           0           0
 AtZEff=   0.0000000   0.0000000   0.0000000   0.0000000   0.0000000   0.0000000   0.0000000   0.0000000   0.0000000   0.0000000
 NQMom=    0.0000000  -8.1650000  -8.1650000   2.0440000   0.0000000   0.0000000   0.0000000   0.0000000   0.0000000   0.0000000
 NMagM=    0.0000000   0.8218740   0.8218740   0.4037610   0.0000000   0.0000000   0.0000000   0.0000000   0.0000000   0.0000000
 AtZNuc=  40.0000000  17.0000000  17.0000000   7.0000000   6.0000000   6.0000000   6.0000000   6.0000000   6.0000000   6.0000000

  Atom        11          12          13          14          15          16          17          18          19          20
 IAtWgt=          12          12          12          12          12          12          12          12          12          12
 AtmWgt=  12.0000000  12.0000000  12.0000000  12.0000000  12.0000000  12.0000000  12.0000000  12.0000000  12.0000000  12.0000000
 NucSpn=           0           0           0           0           0           0           0           0           0           0
 AtZEff=   0.0000000   0.0000000   0.0000000   0.0000000   0.0000000   0.0000000   0.0000000   0.0000000   0.0000000   0.0000000
 NQMom=    0.0000000   0.0000000   0.0000000   0.0000000   0.0000000   0.0000000   0.0000000   0.0000000   0.0000000   0.0000000
 NMagM=    0.0000000   0.0000000   0.0000000   0.0000000   0.0000000   0.0000000   0.0000000   0.0000000   0.0000000   0.0000000
 AtZNuc=   6.0000000   6.0000000   6.0000000   6.0000000   6.0000000   6.0000000   6.0000000   6.0000000   6.0000000   6.0000000

  Atom        21          22          23          24          25          26          27          28          29          30
 IAtWgt=          12           1           1           1           1           1           1           1           1           1
 AtmWgt=  12.0000000   1.0078250   1.0078250   1.0078250   1.0078250   1.0078250   1.0078250   1.0078250   1.0078250   1.0078250
 NucSpn=           0           1           1           1           1           1           1           1           1           1
 AtZEff=   0.0000000   0.0000000   0.0000000   0.0000000   0.0000000   0.0000000   0.0000000   0.0000000   0.0000000   0.0000000
 NQMom=    0.0000000   0.0000000   0.0000000   0.0000000   0.0000000   0.0000000   0.0000000   0.0000000   0.0000000   0.0000000
 NMagM=    0.0000000   2.7928460   2.7928460   2.7928460   2.7928460   2.7928460   2.7928460   2.7928460   2.7928460   2.7928460
 AtZNuc=   6.0000000   1.0000000   1.0000000   1.0000000   1.0000000   1.0000000   1.0000000   1.0000000   1.0000000   1.0000000

  Atom        31          32          33          34          35          36
 IAtWgt=           1           1           1           1           1           1
 AtmWgt=   1.0078250   1.0078250   1.0078250   1.0078250   1.0078250   1.0078250
 NucSpn=           1           1           1           1           1           1
 AtZEff=   0.0000000   0.0000000   0.0000000   0.0000000   0.0000000   0.0000000
 NQMom=    0.0000000   0.0000000   0.0000000   0.0000000   0.0000000   0.0000000
 NMagM=    2.7928460   2.7928460   2.7928460   2.7928460   2.7928460   2.7928460
 AtZNuc=   1.0000000   1.0000000   1.0000000   1.0000000   1.0000000   1.0000000
 Leave Link  101 at Mon Sep 15 12:50:36 2025, MaxMem=    33554432 cpu:         0.0
 (Enter /appl/g09.shchoi/G09Files/g09/l103.exe)

 GradGradGradGradGradGradGradGradGradGradGradGradGradGradGradGradGradGrad
 Berny optimization.
 Initialization pass.
                           ----------------------------
                           !    Initial Parameters    !
                           ! (Angstroms and Degrees)  !
 --------------------------                            --------------------------
 ! Name  Definition              Value          Derivative Info.                !
 --------------------------------------------------------------------------------
 ! R1    R(1,2)                  2.2158         estimate D2E/DX2                !
 ! R2    R(1,3)                  2.2161         estimate D2E/DX2                !
 ! R3    R(1,4)                  1.9682         estimate D2E/DX2                !
 ! R4    R(1,6)                  2.6265         estimate D2E/DX2                !
 ! R5    R(1,7)                  1.6723         estimate D2E/DX2                !
 ! R6    R(1,8)                  1.9057         estimate D2E/DX2                !
 ! R7    R(1,17)                 2.1893         estimate D2E/DX2                !
 ! R8    R(4,5)                  1.3274         estimate D2E/DX2                !
 ! R9    R(4,15)                 1.3548         estimate D2E/DX2                !
 ! R10   R(5,6)                  1.4509         estimate D2E/DX2                !
 ! R11   R(5,12)                 1.3847         estimate D2E/DX2                !
 ! R12   R(6,7)                  1.7713         estimate D2E/DX2                !
 ! R13   R(6,22)                 1.1003         estimate D2E/DX2                !
 ! R14   R(6,23)                 1.0886         estimate D2E/DX2                !
 ! R15   R(7,8)                  1.3899         estimate D2E/DX2                !
 ! R16   R(7,11)                 1.4225         estimate D2E/DX2                !
 ! R17   R(8,9)                  1.3946         estimate D2E/DX2                !
 ! R18   R(8,24)                 1.1029         estimate D2E/DX2                !
 ! R19   R(9,10)                 1.3949         estimate D2E/DX2                !
 ! R20   R(9,25)                 1.0699         estimate D2E/DX2                !
 ! R21   R(10,11)                1.7057         estimate D2E/DX2                !
 ! R22   R(10,26)                1.0898         estimate D2E/DX2                !
 ! R23   R(11,27)                1.0911         estimate D2E/DX2                !
 ! R24   R(12,13)                1.385          estimate D2E/DX2                !
 ! R25   R(12,28)                1.0778         estimate D2E/DX2                !
 ! R26   R(13,14)                1.3878         estimate D2E/DX2                !
 ! R27   R(13,29)                1.0791         estimate D2E/DX2                !
 ! R28   R(14,15)                1.3874         estimate D2E/DX2                !
 ! R29   R(14,30)                1.0787         estimate D2E/DX2                !
 ! R30   R(15,16)                1.4956         estimate D2E/DX2                !
 ! R31   R(16,17)                1.5149         estimate D2E/DX2                !
 ! R32   R(16,31)                1.0971         estimate D2E/DX2                !
 ! R33   R(16,32)                1.0964         estimate D2E/DX2                !
 ! R34   R(17,18)                1.4494         estimate D2E/DX2                !
 ! R35   R(17,21)                1.497          estimate D2E/DX2                !
 ! R36   R(18,19)                1.3701         estimate D2E/DX2                !
 ! R37   R(18,33)                1.0819         estimate D2E/DX2                !
 ! R38   R(19,20)                1.4776         estimate D2E/DX2                !
 ! R39   R(19,34)                1.0803         estimate D2E/DX2                !
 ! R40   R(20,21)                1.3479         estimate D2E/DX2                !
 ! R41   R(20,35)                1.0862         estimate D2E/DX2                !
 ! R42   R(21,36)                1.0859         estimate D2E/DX2                !
 ! A1    A(2,1,3)               90.0021         estimate D2E/DX2                !
 ! A2    A(2,1,6)              129.8707         estimate D2E/DX2                !
 ! A3    A(2,1,7)               97.6498         estimate D2E/DX2                !
 ! A4    A(2,1,8)               62.1081         estimate D2E/DX2                !
 ! A5    A(2,1,17)             108.1128         estimate D2E/DX2                !
 ! A6    A(3,1,4)               88.1482         estimate D2E/DX2                !
 ! A7    A(3,1,6)              110.6373         estimate D2E/DX2                !
 ! A8    A(3,1,7)               87.7212         estimate D2E/DX2                !
 ! A9    A(3,1,8)              113.2169         estimate D2E/DX2                !
 ! A10   A(3,1,17)              92.26           estimate D2E/DX2                !
 ! A11   A(4,1,6)               53.7088         estimate D2E/DX2                !
 ! A12   A(4,1,7)               85.3499         estimate D2E/DX2                !
 ! A13   A(4,1,8)              121.4667         estimate D2E/DX2                !
 ! A14   A(4,1,17)              68.9062         estimate D2E/DX2                !
 ! A15   A(6,1,8)               67.7672         estimate D2E/DX2                !
 ! A16   A(6,1,17)             115.736          estimate D2E/DX2                !
 ! A17   A(7,1,17)             154.2373         estimate D2E/DX2                !
 ! A18   A(8,1,17)             151.7746         estimate D2E/DX2                !
 ! A19   A(1,4,5)              117.0124         estimate D2E/DX2                !
 ! A20   A(1,4,15)             120.2112         estimate D2E/DX2                !
 ! A21   A(5,4,15)             117.0147         estimate D2E/DX2                !
 ! A22   A(4,5,6)              101.7709         estimate D2E/DX2                !
 ! A23   A(4,5,12)             125.1645         estimate D2E/DX2                !
 ! A24   A(6,5,12)             133.022          estimate D2E/DX2                !
 ! A25   A(1,6,5)               82.5008         estimate D2E/DX2                !
 ! A26   A(1,6,22)              85.7611         estimate D2E/DX2                !
 ! A27   A(1,6,23)             152.9302         estimate D2E/DX2                !
 ! A28   A(5,6,7)              101.5704         estimate D2E/DX2                !
 ! A29   A(5,6,22)             107.0704         estimate D2E/DX2                !
 ! A30   A(5,6,23)             112.132          estimate D2E/DX2                !
 ! A31   A(7,6,22)             111.7637         estimate D2E/DX2                !
 ! A32   A(7,6,23)             114.1179         estimate D2E/DX2                !
 ! A33   A(22,6,23)            109.7632         estimate D2E/DX2                !
 ! A34   A(6,7,8)              109.8614         estimate D2E/DX2                !
 ! A35   A(6,7,11)              94.3142         estimate D2E/DX2                !
 ! A36   A(8,7,11)              96.8854         estimate D2E/DX2                !
 ! A37   A(1,8,9)              124.7427         estimate D2E/DX2                !
 ! A38   A(1,8,24)             127.1841         estimate D2E/DX2                !
 ! A39   A(7,8,9)              111.7558         estimate D2E/DX2                !
 ! A40   A(7,8,24)             110.0218         estimate D2E/DX2                !
 ! A41   A(9,8,24)             107.6669         estimate D2E/DX2                !
 ! A42   A(8,9,10)              87.6721         estimate D2E/DX2                !
 ! A43   A(8,9,25)             138.2425         estimate D2E/DX2                !
 ! A44   A(10,9,25)            132.9338         estimate D2E/DX2                !
 ! A45   A(9,10,11)            116.4734         estimate D2E/DX2                !
 ! A46   A(9,10,26)            123.3712         estimate D2E/DX2                !
 ! A47   A(11,10,26)           119.5248         estimate D2E/DX2                !
 ! A48   A(7,11,10)             83.785          estimate D2E/DX2                !
 ! A49   A(7,11,27)            122.1339         estimate D2E/DX2                !
 ! A50   A(10,11,27)           114.8479         estimate D2E/DX2                !
 ! A51   A(5,12,13)            117.457          estimate D2E/DX2                !
 ! A52   A(5,12,28)            120.4877         estimate D2E/DX2                !
 ! A53   A(13,12,28)           122.0512         estimate D2E/DX2                !
 ! A54   A(12,13,14)           118.7611         estimate D2E/DX2                !
 ! A55   A(12,13,29)           120.6952         estimate D2E/DX2                !
 ! A56   A(14,13,29)           120.5435         estimate D2E/DX2                !
 ! A57   A(13,14,15)           119.6857         estimate D2E/DX2                !
 ! A58   A(13,14,30)           120.8487         estimate D2E/DX2                !
 ! A59   A(15,14,30)           119.4607         estimate D2E/DX2                !
 ! A60   A(4,15,14)            121.9153         estimate D2E/DX2                !
 ! A61   A(4,15,16)            112.7974         estimate D2E/DX2                !
 ! A62   A(14,15,16)           125.2673         estimate D2E/DX2                !
 ! A63   A(15,16,17)           101.7162         estimate D2E/DX2                !
 ! A64   A(15,16,31)           111.0332         estimate D2E/DX2                !
 ! A65   A(15,16,32)           110.3157         estimate D2E/DX2                !
 ! A66   A(17,16,31)           113.9981         estimate D2E/DX2                !
 ! A67   A(17,16,32)           111.1785         estimate D2E/DX2                !
 ! A68   A(31,16,32)           108.4821         estimate D2E/DX2                !
 ! A69   A(1,17,16)            109.0238         estimate D2E/DX2                !
 ! A70   A(1,17,18)             94.6717         estimate D2E/DX2                !
 ! A71   A(1,17,21)             96.2415         estimate D2E/DX2                !
 ! A72   A(16,17,18)           126.2377         estimate D2E/DX2                !
 ! A73   A(16,17,21)           118.2431         estimate D2E/DX2                !
 ! A74   A(18,17,21)           105.5887         estimate D2E/DX2                !
 ! A75   A(17,18,19)           103.7634         estimate D2E/DX2                !
 ! A76   A(17,18,33)           126.4444         estimate D2E/DX2                !
 ! A77   A(19,18,33)           128.2935         estimate D2E/DX2                !
 ! A78   A(18,19,20)           109.4521         estimate D2E/DX2                !
 ! A79   A(18,19,34)           127.1408         estimate D2E/DX2                !
 ! A80   A(20,19,34)           123.3404         estimate D2E/DX2                !
 ! A81   A(19,20,21)           107.0156         estimate D2E/DX2                !
 ! A82   A(19,20,35)           121.1279         estimate D2E/DX2                !
 ! A83   A(21,20,35)           126.508          estimate D2E/DX2                !
 ! A84   A(17,21,20)           102.4087         estimate D2E/DX2                !
 ! A85   A(17,21,36)           124.6334         estimate D2E/DX2                !
 ! A86   A(20,21,36)           127.9952         estimate D2E/DX2                !
 ! A87   L(2,1,4,3,-1)         178.1503         estimate D2E/DX2                !
 ! A88   L(1,7,11,5,-1)        192.9252         estimate D2E/DX2                !
 ! A89   L(2,1,4,3,-2)         183.0735         estimate D2E/DX2                !
 ! A90   L(1,7,11,5,-2)        174.7983         estimate D2E/DX2                !
 ! D1    D(3,1,4,5)            101.2717         estimate D2E/DX2                !
 ! D2    D(3,1,4,15)           -51.2039         estimate D2E/DX2                !
 ! D3    D(6,1,4,5)            -16.1957         estimate D2E/DX2                !
 ! D4    D(6,1,4,15)          -168.6712         estimate D2E/DX2                !
 ! D5    D(7,1,4,5)             13.4084         estimate D2E/DX2                !
 ! D6    D(7,1,4,15)          -139.0671         estimate D2E/DX2                !
 ! D7    D(8,1,4,5)            -15.0004         estimate D2E/DX2                !
 ! D8    D(8,1,4,15)          -167.476          estimate D2E/DX2                !
 ! D9    D(17,1,4,5)          -165.5893         estimate D2E/DX2                !
 ! D10   D(17,1,4,15)           41.9352         estimate D2E/DX2                !
 ! D11   D(2,1,6,5)           -166.4554         estimate D2E/DX2                !
 ! D12   D(2,1,6,22)            85.6872         estimate D2E/DX2                !
 ! D13   D(2,1,6,23)           -41.1855         estimate D2E/DX2                !
 ! D14   D(3,1,6,5)            -58.1173         estimate D2E/DX2                !
 ! D15   D(3,1,6,22)          -165.9746         estimate D2E/DX2                !
 ! D16   D(3,1,6,23)            67.1527         estimate D2E/DX2                !
 ! D17   D(4,1,6,5)             13.2558         estimate D2E/DX2                !
 ! D18   D(4,1,6,22)           -94.6015         estimate D2E/DX2                !
 ! D19   D(4,1,6,23)           138.5258         estimate D2E/DX2                !
 ! D20   D(8,1,6,5)           -165.6429         estimate D2E/DX2                !
 ! D21   D(8,1,6,22)            86.4998         estimate D2E/DX2                !
 ! D22   D(8,1,6,23)           -40.3729         estimate D2E/DX2                !
 ! D23   D(17,1,6,5)            45.0811         estimate D2E/DX2                !
 ! D24   D(17,1,6,22)          -62.7763         estimate D2E/DX2                !
 ! D25   D(17,1,6,23)          170.351          estimate D2E/DX2                !
 ! D26   D(2,1,11,10)           85.3504         estimate D2E/DX2                !
 ! D27   D(2,1,11,27)          -30.3744         estimate D2E/DX2                !
 ! D28   D(3,1,11,10)          175.1885         estimate D2E/DX2                !
 ! D29   D(3,1,11,27)           59.4636         estimate D2E/DX2                !
 ! D30   D(4,1,11,10)          -96.7606         estimate D2E/DX2                !
 ! D31   D(4,1,11,27)          147.5146         estimate D2E/DX2                !
 ! D32   D(17,1,11,10)        -101.9095         estimate D2E/DX2                !
 ! D33   D(17,1,11,27)         142.3657         estimate D2E/DX2                !
 ! D34   D(2,1,8,9)            126.3479         estimate D2E/DX2                !
 ! D35   D(2,1,8,24)           -45.4181         estimate D2E/DX2                !
 ! D36   D(3,1,8,9)           -156.7723         estimate D2E/DX2                !
 ! D37   D(3,1,8,24)            31.4617         estimate D2E/DX2                !
 ! D38   D(4,1,8,9)            -53.9872         estimate D2E/DX2                !
 ! D39   D(4,1,8,24)           134.2468         estimate D2E/DX2                !
 ! D40   D(6,1,8,9)            -52.9465         estimate D2E/DX2                !
 ! D41   D(6,1,8,24)           135.2875         estimate D2E/DX2                !
 ! D42   D(17,1,8,9)            50.3714         estimate D2E/DX2                !
 ! D43   D(17,1,8,24)         -121.3945         estimate D2E/DX2                !
 ! D44   D(2,1,17,16)          132.2812         estimate D2E/DX2                !
 ! D45   D(2,1,17,18)            1.3201         estimate D2E/DX2                !
 ! D46   D(2,1,17,21)         -104.9503         estimate D2E/DX2                !
 ! D47   D(3,1,17,16)           41.5394         estimate D2E/DX2                !
 ! D48   D(3,1,17,18)          -89.4217         estimate D2E/DX2                !
 ! D49   D(3,1,17,21)          164.3079         estimate D2E/DX2                !
 ! D50   D(4,1,17,16)          -45.6012         estimate D2E/DX2                !
 ! D51   D(4,1,17,18)         -176.5624         estimate D2E/DX2                !
 ! D52   D(4,1,17,21)           77.1673         estimate D2E/DX2                !
 ! D53   D(6,1,17,16)          -72.7025         estimate D2E/DX2                !
 ! D54   D(6,1,17,18)          156.3364         estimate D2E/DX2                !
 ! D55   D(6,1,17,21)           50.066          estimate D2E/DX2                !
 ! D56   D(7,1,17,16)          -47.9001         estimate D2E/DX2                !
 ! D57   D(7,1,17,18)         -178.8613         estimate D2E/DX2                !
 ! D58   D(7,1,17,21)           74.8683         estimate D2E/DX2                !
 ! D59   D(8,1,17,16)         -163.2703         estimate D2E/DX2                !
 ! D60   D(8,1,17,18)           65.7686         estimate D2E/DX2                !
 ! D61   D(8,1,17,21)          -40.5018         estimate D2E/DX2                !
 ! D62   D(1,4,5,6)             24.5643         estimate D2E/DX2                !
 ! D63   D(1,4,5,12)          -153.323          estimate D2E/DX2                !
 ! D64   D(15,4,5,6)           177.9316         estimate D2E/DX2                !
 ! D65   D(15,4,5,12)            0.0442         estimate D2E/DX2                !
 ! D66   D(1,4,15,14)          152.4383         estimate D2E/DX2                !
 ! D67   D(1,4,15,16)          -29.1081         estimate D2E/DX2                !
 ! D68   D(5,4,15,14)           -0.0367         estimate D2E/DX2                !
 ! D69   D(5,4,15,16)          178.4169         estimate D2E/DX2                !
 ! D70   D(4,5,6,1)            -16.256          estimate D2E/DX2                !
 ! D71   D(4,5,6,7)            -50.3649         estimate D2E/DX2                !
 ! D72   D(4,5,6,22)            66.9436         estimate D2E/DX2                !
 ! D73   D(4,5,6,23)          -172.6094         estimate D2E/DX2                !
 ! D74   D(12,5,6,1)           161.3815         estimate D2E/DX2                !
 ! D75   D(12,5,6,7)           127.2727         estimate D2E/DX2                !
 ! D76   D(12,5,6,22)         -115.4189         estimate D2E/DX2                !
 ! D77   D(12,5,6,23)            5.0282         estimate D2E/DX2                !
 ! D78   D(4,5,12,13)            0.2051         estimate D2E/DX2                !
 ! D79   D(4,5,12,28)          179.4879         estimate D2E/DX2                !
 ! D80   D(6,5,12,13)         -176.9655         estimate D2E/DX2                !
 ! D81   D(6,5,12,28)            2.3173         estimate D2E/DX2                !
 ! D82   D(5,6,7,8)            141.0227         estimate D2E/DX2                !
 ! D83   D(5,6,7,11)          -120.0559         estimate D2E/DX2                !
 ! D84   D(22,6,7,8)            27.1711         estimate D2E/DX2                !
 ! D85   D(22,6,7,11)          126.0924         estimate D2E/DX2                !
 ! D86   D(23,6,7,8)           -98.1139         estimate D2E/DX2                !
 ! D87   D(23,6,7,11)            0.8075         estimate D2E/DX2                !
 ! D88   D(6,7,8,9)             23.1824         estimate D2E/DX2                !
 ! D89   D(6,7,8,24)           142.7335         estimate D2E/DX2                !
 ! D90   D(11,7,8,9)           -73.9513         estimate D2E/DX2                !
 ! D91   D(11,7,8,24)           45.5998         estimate D2E/DX2                !
 ! D92   D(6,7,11,10)          -60.8091         estimate D2E/DX2                !
 ! D93   D(6,7,11,27)         -176.3249         estimate D2E/DX2                !
 ! D94   D(8,7,11,10)           49.8188         estimate D2E/DX2                !
 ! D95   D(8,7,11,27)          -65.6971         estimate D2E/DX2                !
 ! D96   D(1,8,9,10)           108.858          estimate D2E/DX2                !
 ! D97   D(1,8,9,25)           -83.1567         estimate D2E/DX2                !
 ! D98   D(7,8,9,10)            42.9103         estimate D2E/DX2                !
 ! D99   D(7,8,9,25)          -149.1044         estimate D2E/DX2                !
 ! D100  D(24,8,9,10)          -78.0196         estimate D2E/DX2                !
 ! D101  D(24,8,9,25)           89.9657         estimate D2E/DX2                !
 ! D102  D(8,9,10,11)           -3.4267         estimate D2E/DX2                !
 ! D103  D(8,9,10,26)          167.4069         estimate D2E/DX2                !
 ! D104  D(25,9,10,11)        -172.5118         estimate D2E/DX2                !
 ! D105  D(25,9,10,26)          -1.6782         estimate D2E/DX2                !
 ! D106  D(9,10,11,7)          -32.7786         estimate D2E/DX2                !
 ! D107  D(9,10,11,27)          89.8505         estimate D2E/DX2                !
 ! D108  D(26,10,11,7)         156.016          estimate D2E/DX2                !
 ! D109  D(26,10,11,27)        -81.3549         estimate D2E/DX2                !
 ! D110  D(5,12,13,14)          -0.4531         estimate D2E/DX2                !
 ! D111  D(5,12,13,29)         179.3904         estimate D2E/DX2                !
 ! D112  D(28,12,13,14)       -179.7239         estimate D2E/DX2                !
 ! D113  D(28,12,13,29)          0.1195         estimate D2E/DX2                !
 ! D114  D(12,13,14,15)          0.4691         estimate D2E/DX2                !
 ! D115  D(12,13,14,30)        179.6603         estimate D2E/DX2                !
 ! D116  D(29,13,14,15)       -179.3746         estimate D2E/DX2                !
 ! D117  D(29,13,14,30)         -0.1834         estimate D2E/DX2                !
 ! D118  D(13,14,15,4)          -0.2227         estimate D2E/DX2                !
 ! D119  D(13,14,15,16)       -178.4765         estimate D2E/DX2                !
 ! D120  D(30,14,15,4)        -179.4252         estimate D2E/DX2                !
 ! D121  D(30,14,15,16)          2.3209         estimate D2E/DX2                !
 ! D122  D(4,15,16,17)         -12.6374         estimate D2E/DX2                !
 ! D123  D(4,15,16,31)        -134.2892         estimate D2E/DX2                !
 ! D124  D(4,15,16,32)         105.4108         estimate D2E/DX2                !
 ! D125  D(14,15,16,17)        165.7548         estimate D2E/DX2                !
 ! D126  D(14,15,16,31)         44.1031         estimate D2E/DX2                !
 ! D127  D(14,15,16,32)        -76.1969         estimate D2E/DX2                !
 ! D128  D(15,16,17,1)          42.8032         estimate D2E/DX2                !
 ! D129  D(15,16,17,18)        153.8733         estimate D2E/DX2                !
 ! D130  D(15,16,17,21)        -65.6029         estimate D2E/DX2                !
 ! D131  D(31,16,17,1)         162.3776         estimate D2E/DX2                !
 ! D132  D(31,16,17,18)        -86.5523         estimate D2E/DX2                !
 ! D133  D(31,16,17,21)         53.9715         estimate D2E/DX2                !
 ! D134  D(32,16,17,1)         -74.6234         estimate D2E/DX2                !
 ! D135  D(32,16,17,18)         36.4466         estimate D2E/DX2                !
 ! D136  D(32,16,17,21)        176.9704         estimate D2E/DX2                !
 ! D137  D(1,17,18,19)         -71.0528         estimate D2E/DX2                !
 ! D138  D(1,17,18,33)          95.8531         estimate D2E/DX2                !
 ! D139  D(16,17,18,19)        171.2131         estimate D2E/DX2                !
 ! D140  D(16,17,18,33)        -21.881          estimate D2E/DX2                !
 ! D141  D(21,17,18,19)         26.7663         estimate D2E/DX2                !
 ! D142  D(21,17,18,33)       -166.3278         estimate D2E/DX2                !
 ! D143  D(1,17,21,20)          61.5778         estimate D2E/DX2                !
 ! D144  D(1,17,21,36)         -95.0628         estimate D2E/DX2                !
 ! D145  D(16,17,21,20)        177.1066         estimate D2E/DX2                !
 ! D146  D(16,17,21,36)         20.4661         estimate D2E/DX2                !
 ! D147  D(18,17,21,20)        -35.0589         estimate D2E/DX2                !
 ! D148  D(18,17,21,36)        168.3005         estimate D2E/DX2                !
 ! D149  D(17,18,19,20)         -9.513          estimate D2E/DX2                !
 ! D150  D(17,18,19,34)        173.4022         estimate D2E/DX2                !
 ! D151  D(33,18,19,20)       -176.086          estimate D2E/DX2                !
 ! D152  D(33,18,19,34)          6.8291         estimate D2E/DX2                !
 ! D153  D(18,19,20,21)        -13.1198         estimate D2E/DX2                !
 ! D154  D(18,19,20,35)       -168.8516         estimate D2E/DX2                !
 ! D155  D(34,19,20,21)        164.0987         estimate D2E/DX2                !
 ! D156  D(34,19,20,35)          8.3669         estimate D2E/DX2                !
 ! D157  D(19,20,21,17)         28.5444         estimate D2E/DX2                !
 ! D158  D(19,20,21,36)       -175.9106         estimate D2E/DX2                !
 ! D159  D(35,20,21,17)       -177.4142         estimate D2E/DX2                !
 ! D160  D(35,20,21,36)        -21.8692         estimate D2E/DX2                !
 --------------------------------------------------------------------------------
 Trust Radius=3.00D-01 FncErr=1.00D-07 GrdErr=1.00D-07
 Number of steps in this run=    216 maximum allowed number of steps=    216.
 GradGradGradGradGradGradGradGradGradGradGradGradGradGradGradGradGradGrad

 Leave Link  103 at Mon Sep 15 12:50:36 2025, MaxMem=    33554432 cpu:         0.0
 (Enter /appl/g09.shchoi/G09Files/g09/l202.exe)
                          Input orientation:                          
 ---------------------------------------------------------------------
 Center     Atomic      Atomic             Coordinates (Angstroms)
 Number     Number       Type             X           Y           Z
 ---------------------------------------------------------------------
      1         40           0       -0.000158   -0.000191   -0.000238
      2         17           0        0.000000    0.000000   -2.216040
      3         17           0        2.215976    0.000000    0.000000
      4          7           0        0.063241   -0.105828    1.964107
      5          6           0       -0.148476    1.019494    2.635522
      6          6           0       -0.926210    1.790260    1.683598
      7          6           0        0.066171    1.655916    0.222527
      8          6           0       -0.751437    1.507318   -0.891646
      9          6           0       -2.032604    2.008603   -0.663194
     10          6           0       -1.431786    3.103015   -0.041090
     11          6           0        0.267415    3.058817    0.100487
     12          6           0        0.341300    1.297584    3.900520
     13          6           0        1.116793    0.327002    4.512654
     14          6           0        1.351818   -0.863105    3.838660
     15          6           0        0.818457   -1.052247    2.571892
     16          6           0        0.965172   -2.292873    1.749530
     17          6           0       -0.086383   -2.079264    0.680202
     18          6           0       -0.076278   -2.641242   -0.655812
     19          6           0       -1.314310   -2.326495   -1.151210
     20          6           0       -2.156367   -1.785673   -0.064142
     21          6           0       -1.524376   -2.055059    1.095578
     22          1           0       -1.893774    1.279212    1.568015
     23          1           0       -1.087967    2.813167    2.018927
     24          1           0       -0.325357    2.055609   -1.748511
     25          1           0       -3.035461    1.809357   -0.978135
     26          1           0       -1.968393    4.016606    0.214104
     27          1           0        0.809019    3.496516   -0.739494
     28          1           0        0.128912    2.242460    4.373633
     29          1           0        1.533216    0.492785    5.494230
     30          1           0        1.955430   -1.639701    4.281532
     31          1           0        0.805389   -3.190762    2.359428
     32          1           0        1.969577   -2.343539    1.312842
     33          1           0        0.789692   -3.001830   -1.194827
     34          1           0       -1.672340   -2.481168   -2.158603
     35          1           0       -3.224381   -1.641865   -0.199787
     36          1           0       -1.871624   -1.863028    2.106386
 ---------------------------------------------------------------------
                    Distance matrix (angstroms):
                    1          2          3          4          5
     1  Zr   0.000000
     2  Cl   2.215802   0.000000
     3  Cl   2.216134   3.133909   0.000000
     4  N    1.968205   4.181965   2.916022   0.000000
     5  C    2.830015   4.959745   3.684559   1.327393   0.000000
     6  C    2.626517   4.389769   3.989093   2.157046   1.450900
     7  C    1.672338   2.948397   2.722726   2.477267   2.504726
     8  C    1.905679   2.142588   3.445661   3.379536   3.611433
     9  C    2.933530   3.252275   4.746024   3.970654   3.925532
    10  C    3.417765   4.050817   4.789213   4.068488   3.626596
    11  C    3.072340   3.846319   3.628133   3.678280   3.279970
    12  C    4.125134   6.261990   4.517985   2.407608   1.384715
    13  C    4.660561   6.828578   4.656091   2.791488   2.367293
    14  C    4.160480   6.263526   4.028279   2.397467   2.691208
    15  C    2.897034   4.970049   3.110452   1.354793   2.287164
    16  C    3.041372   4.681300   3.143665   2.375434   3.605131
    17  C    2.189287   3.566373   3.175983   2.359078   3.664619
    18  C    2.722264   3.068597   3.558185   3.648529   4.923320
    19  C    2.909196   2.876431   4.381870   4.066228   5.185957
    20  C    2.800226   3.531177   4.723360   3.444174   4.380499
    21  C    2.783260   4.184950   4.406108   2.659769   3.703701
    22  H    2.771655   4.420615   4.580950   2.430048   2.062302
    23  H    3.629785   5.199281   4.786023   3.138282   2.116624
    24  H    2.718184   2.133066   3.706911   4.313508   4.508278
    25  H    3.666580   3.744356   5.639868   4.682593   4.692236
    26  H    4.478231   5.090510   5.804129   4.917775   4.261226
    27  H    3.664454   3.880763   3.840834   4.565361   4.294551
    28  H    4.917000   6.961971   5.339769   3.365202   2.143273
    29  H    5.725682   7.876665   5.558378   3.870521   3.358232
    30  H    4.984563   6.980743   4.592169   3.362083   3.769229
    31  H    4.049281   5.636002   4.211605   3.197480   4.325776
    32  H    3.330963   4.671661   2.697488   3.010916   4.188749
    33  H    3.325769   3.267640   3.531697   4.346656   5.632298
    34  H    3.689171   2.992694   5.092618   5.064703   6.128656
    35  H    3.623607   4.142177   5.686222   4.224962   4.958125
    36  H    3.377930   5.065295   4.961472   2.617575   3.399729
                    6          7          8          9         10
     6  C    0.000000
     7  C    1.771326   0.000000
     8  C    2.596629   1.389944   0.000000
     9  C    2.603692   2.305156   1.394584   0.000000
    10  C    2.225642   2.099396   1.931986   1.394895   0.000000
    11  C    2.353767   1.422506   2.104646   2.641258   1.705662
    12  C    2.600780   3.705635   4.919646   5.193116   4.683984
    13  C    3.783985   4.612484   5.838655   6.287757   5.910845
    14  C    4.107804   4.590727   5.693714   6.322002   6.207336
    15  C    3.451489   3.663277   4.583889   5.288018   5.399766
    16  C    4.500405   4.328149   4.935991   5.771533   6.169873
    17  C    4.084768   3.766206   3.971973   4.722621   5.402443
    18  C    5.082660   4.388318   4.209751   5.044633   5.933951
    19  C    5.013425   4.433112   3.883596   4.421219   5.543081
    20  C    4.165955   4.106871   3.674559   3.843268   4.942147
    21  C    3.935740   4.130786   4.151749   4.457008   5.282643
    22  H    1.100322   2.406996   2.721562   2.351506   2.475663
    23  H    1.088554   2.428645   3.207792   2.955239   2.108529
    24  H    3.494396   2.048912   1.102898   2.023565   2.288347
    25  H    3.396193   3.329453   2.305531   1.069864   2.263488
    26  H    2.863944   3.116469   3.000032   2.192225   1.089825
    27  H    3.434196   2.205701   2.532801   3.208509   2.379878
    28  H    2.924732   4.192809   5.388749   5.486025   4.760894
    29  H    4.717323   5.594278   6.857720   7.275070   6.800317
    30  H    5.178585   5.559309   6.632694   7.325630   7.256146
    31  H    5.316555   5.348184   5.921583   6.650101   7.097821
    32  H    5.060764   4.561511   5.205073   6.234045   6.562572
    33  H    5.847545   4.922090   4.774873   5.775156   6.598121
    34  H    5.793472   5.080124   4.285004   4.745954   5.977025
    35  H    4.539627   4.677760   4.063431   3.867945   5.074689
    36  H    3.797245   4.436997   4.647822   4.762984   5.428323
                   11         12         13         14         15
    11  C    0.000000
    12  C    4.188992   0.000000
    13  C    5.258467   1.384965   0.000000
    14  C    5.525517   2.386116   1.387753   0.000000
    15  C    4.828285   2.741284   2.399560   1.387426   0.000000
    16  C    5.643296   4.231708   3.810720   2.560897   1.495646
    17  C    5.182771   4.685772   4.682461   3.677407   2.334950
    18  C    5.760277   6.037291   6.078399   5.039991   3.707227
    19  C    5.750668   6.433892   6.710489   5.843676   4.475924
    20  C    5.419493   5.609221   6.010327   5.328260   4.041802
    21  C    5.509306   4.752753   4.932180   4.149427   2.945166
    22  H    3.160913   3.230553   4.317536   4.503245   3.714790
    23  H    2.361740   2.807167   4.154595   4.772730   4.345302
    24  H    2.185543   5.738518   6.653575   6.522905   5.443617
    25  H    3.692366   5.955309   7.041829   7.042143   5.970272
    26  H    2.434976   5.130051   6.450510   6.926239   6.246516
    27  H    1.091093   5.155947   6.142117   6.345110   5.626421
    28  H    4.352631   1.077838   2.159679   3.380271   3.817962
    29  H    6.105672   2.146690   1.079066   2.147616   3.382021
    30  H    6.512035   3.373163   2.150500   1.078696   2.135575
    31  H    6.667043   4.768186   4.136184   2.811530   2.149083
    32  H    5.792462   4.754486   4.254154   2.992168   2.139561
    33  H    6.219490   6.681959   6.615395   5.497829   4.241447
    34  H    6.289481   7.419345   7.756981   6.908750   5.533847
    35  H    5.863379   6.177941   6.702934   6.152814   4.937043
    36  H    5.729195   4.255046   4.417804   3.793573   2.847911
                   16         17         18         19         20
    16  C    0.000000
    17  C    1.514879   0.000000
    18  C    2.644173   1.449433   0.000000
    19  C    3.689371   2.218783   1.370112   0.000000
    20  C    3.645636   2.219252   2.325692   1.477588   0.000000
    21  C    2.584968   1.496979   2.346905   2.272853   1.347936
    22  H    4.578898   3.915895   4.859903   4.553140   3.482300
    23  H    5.509955   5.170226   6.158597   6.042940   5.160425
    24  H    5.728093   4.801347   4.828710   4.531846   4.576586
    25  H    6.346141   5.154466   5.354296   4.483033   3.812142
    26  H    7.125508   6.396784   6.975944   6.521260   5.811987
    27  H    6.303701   5.822938   6.201841   6.211722   6.095173
    28  H    5.306081   5.689032   7.013413   7.313148   6.414219
    29  H    4.701632   5.693277   7.087709   7.760066   7.049815
    30  H    2.796119   4.163147   5.432153   6.377897   5.984402
    31  H    1.097138   2.202382   3.189198   4.191021   4.076759
    32  H    1.096400   2.167267   2.854776   4.105576   4.385284
    33  H    3.033587   2.265915   1.081880   2.210159   3.381826
    34  H    4.718626   3.276523   2.198049   1.080255   2.259372
    35  H    4.666476   3.288272   3.334256   2.241048   1.086156
    36  H    2.891284   2.295178   3.385059   3.337264   2.190492
                   21         22         23         24         25
    21  C    0.000000
    22  H    3.387774   0.000000
    23  H    4.974198   1.790437   0.000000
    24  H    5.140436   3.749943   3.917787   0.000000
    25  H    4.638682   2.840314   3.712512   2.828212   0.000000
    26  H    6.151363   3.054827   2.341111   3.224428   2.726172
    27  H    6.295412   4.188809   3.416783   2.093117   4.205173
    28  H    5.652227   3.590348   2.711299   6.141817   6.232356
    29  H    5.931991   5.270474   4.932799   7.638980   8.031045
    30  H    4.736230   5.540722   5.848904   7.430930   8.029265
    31  H    2.883564   5.281333   6.304594   6.758562   7.133908
    32  H    3.512568   5.302350   6.036452   5.830189   6.895326
    33  H    3.390758   5.758611   6.904202   5.208415   6.150307
    34  H    3.285294   5.298790   6.769286   4.750251   4.654053
    35  H    2.176859   3.664469   5.416112   4.947141   3.542944
    36  H    1.085905   3.188104   4.742211   5.710244   4.935099
                   26         27         28         29         30
    26  H    0.000000
    27  H    2.982258   0.000000
    28  H    4.984773   5.308415   0.000000
    29  H    7.249711   6.957455   2.507822   0.000000
    30  H    7.995884   7.273629   4.291366   2.489256   0.000000
    31  H    8.015138   7.370415   5.833913   4.891343   2.724494
    32  H    7.560838   6.298033   5.812734   5.071405   3.051018
    33  H    7.671412   6.514308   7.677692   7.583445   5.762365
    34  H    6.923760   6.625988   8.259980   8.813957   7.439363
    35  H    5.810947   6.554583   6.873771   7.720964   6.849282
    36  H    6.177394   6.633973   5.098783   5.349792   4.407661
                   31         32         33         34         35
    31  H    0.000000
    32  H    1.780018   0.000000
    33  H    3.559308   2.848487   0.000000
    34  H    5.201468   5.033233   2.694727   0.000000
    35  H    5.018736   5.455052   4.353434   2.636327   0.000000
    36  H    2.998884   3.951636   4.390613   4.314156   2.682778
                   36
    36  H    0.000000
 Stoichiometry    C17H15Cl2NZr
 Framework group  C1[X(C17H15Cl2NZr)]
 Deg. of freedom   102
 Full point group                 C1      NOp   1
 Largest Abelian subgroup         C1      NOp   1
 Largest concise Abelian subgroup C1      NOp   1
                         Standard orientation:                         
 ---------------------------------------------------------------------
 Center     Atomic      Atomic             Coordinates (Angstroms)
 Number     Number       Type             X           Y           Z
 ---------------------------------------------------------------------
      1         40           0        0.524313   -0.082579    0.166081
      2         17           0        2.635187   -0.300331    0.803711
      3         17           0       -0.135720   -0.326521    2.267533
      4          7           0       -1.372423   -0.000849   -0.353094
      5          6           0       -1.879736    1.201492   -0.595955
      6          6           0       -0.693863    1.955869   -0.956136
      7          6           0        0.394307    1.569970    0.387205
      8          6           0        1.690017    1.403499   -0.087525
      9          6           0        1.884689    2.062903   -1.300848
     10          6           0        1.180531    3.140306   -0.763169
     11          6           0        0.537026    2.923313    0.801471
     12          6           0       -3.213552    1.546986   -0.458106
     13          6           0       -4.087356    0.561813   -0.029120
     14          6           0       -3.588514   -0.707425    0.227888
     15          6           0       -2.234559   -0.960318    0.061158
     16          6           0       -1.571190   -2.284383    0.270326
     17          6           0       -0.226248   -2.062434   -0.390527
     18          6           0        1.008913   -2.750759   -0.072032
     19          6           0        1.868842   -2.351790   -1.061251
     20          6           0        1.117239   -1.617215   -2.099884
     21          6           0       -0.192332   -1.839216   -1.870382
     22          1           0       -0.327139    1.545655   -1.908999
     23          1           0       -0.902180    3.018360   -1.068682
     24          1           0        2.413219    1.814564    0.636624
     25          1           0        2.471038    1.945354   -2.187970
     26          1           0        1.153431    4.128096   -1.222795
     27          1           0        1.202938    3.213932    1.615464
     28          1           0       -3.542860    2.551430   -0.668777
     29          1           0       -5.136242    0.776438    0.105630
     30          1           0       -4.237950   -1.498449    0.568618
     31          1           0       -2.159925   -3.094840   -0.177181
     32          1           0       -1.457339   -2.488099    1.341602
     33          1           0        1.242383   -3.255811    0.855804
     34          1           0        2.925621   -2.564400   -1.131711
     35          1           0        1.573301   -1.370660   -3.054323
     36          1           0       -1.040080   -1.511621   -2.464685
 ---------------------------------------------------------------------
 Rotational constants (GHZ):      0.3923438      0.3197151      0.2459094
 Leave Link  202 at Mon Sep 15 12:50:36 2025, MaxMem=    33554432 cpu:         0.0
 (Enter /appl/g09.shchoi/G09Files/g09/l301.exe)
 Standard basis: SDD (6D, 10F)
 Ernie: Thresh=  0.10000D-02 Tol=  0.10000D-05 Strict=F.
 There are   285 symmetry adapted cartesian basis functions of A   symmetry.
 There are   285 symmetry adapted basis functions of A   symmetry.
   285 basis functions,   629 primitive gaussians,   285 cartesian basis functions
    85 alpha electrons       85 beta electrons
       nuclear repulsion energy      2239.9862833101 Hartrees.



 Warning!  Cl atom    2 may be hypervalent but has no d functions.
 Warning!  Cl atom    3 may be hypervalent but has no d functions.



 IExCor=    0 DFT=F Ex=HF Corr=None ExCW=0 ScaHFX=  1.000000
 ScaDFX=  1.000000  1.000000  1.000000  1.000000 ScalE2=  1.000000  1.000000
 IRadAn=      0 IRanWt=     -1 IRanGd=            0 ICorTp=0 IEmpDi=  4
 NAtoms=   36 NActive=   36 NUniq=   36 SFac= 1.00D+00 NAtFMM=   60 NAOKFM=F Big=F
 Integral buffers will be    131072 words long.
 Raffenetti 1 integral format.
 Two-electron integral symmetry is turned on.
 Leave Link  301 at Mon Sep 15 12:50:36 2025, MaxMem=    33554432 cpu:         0.0
 (Enter /appl/g09.shchoi/G09Files/g09/l402.exe)
 External calculation of energy and first derivatives.
 Running external command "/home/rxn_grp/programs/xtb-gaussian R"
         input file       "/home/rxn_grp/scratch/Gau-2485213.EIn"
         output file      "/home/rxn_grp/scratch/Gau-2485213.EOu"
         message file     "/home/rxn_grp/scratch/Gau-2485213.EMs"
         fchk file        "/home/rxn_grp/scratch/Gau-2485213.EFC"
         mat. el file     "/home/rxn_grp/scratch/Gau-2485213.EUF"

 ExternalExternalExternalExternalExternalExternalExternalExternalExternalExternal
 Output from external command:
 "/home/rxn_grp/programs/xtb-gaussian R /home/rxn_grp/scratch/Gau-2485213.EIn /home/rxn_grp/scratch/Gau-2485213.EOu /home/rxn_grp/scratch/Gau-2485213.EMs /home/rxn_grp/scratch/Gau-2485213.EFC /home/rxn_grp/scratch/Gau-2485213.EUF"
 normal termination of xtb
  
 ------- xtb command was ---------
 ?> xtb ./Gau-2485213.EIn  --grad --charge 0  >/dev/null 2>Gau-2485213.EMs
 ---------------------------------
              Control returned to Gaussian.
 ~~~~~~~~~~~~~~~~~~~~~~~~~~~~~~~~~~~~~~~~~~~~~~~~~~~~~~~~~~~~~~~~~~~~~~~~~
 ExternalExternalExternalExternalExternalExternalExternalExternalExternalExternal

 Recovered energy= -57.2746242853     dipole=     -1.434119977800      1.050582309450     -2.174961845260
 Energy=    -57.2746243     NIter=   0.
 Dipole moment=      -1.434120       1.050582      -2.174962
 Leave Link  402 at Mon Sep 15 12:50:36 2025, MaxMem=    33554432 cpu:         0.0
 (Enter /appl/g09.shchoi/G09Files/g09/l601.exe)
 Leave Link  601 at Mon Sep 15 12:50:36 2025, MaxMem=    33554432 cpu:         0.0
 (Enter /appl/g09.shchoi/G09Files/g09/l716.exe)
 Dipole        =-1.43411998D+00 1.05058231D+00-2.17496185D+00
 ***** Axes restored to original set *****
 -------------------------------------------------------------------
 Center     Atomic                   Forces (Hartrees/Bohr)
 Number     Number              X              Y              Z
 -------------------------------------------------------------------
      1       40           0.006651376   -0.572925513   -0.007129658
      2       17           0.008771323   -0.040847770   -0.072601452
      3       17           0.048154280   -0.008313009   -0.003998403
      4        7           0.039323589   -0.030072785    0.079758212
      5        6           0.000161522   -0.000116262   -0.000270569
      6        6          -0.000410195    0.000096735    0.000194194
      7        6           0.056197462    0.436072585    0.175068823
      8        6          -0.026865941    0.092632394   -0.144604166
      9        6          -0.021322806    0.082920177    0.035052476
     10        6          -0.029790582    0.045861923   -0.036266971
     11        6          -0.072581839    0.026878197   -0.018973673
     12        6          -0.000107570   -0.000034639    0.000108164
     13        6          -0.000020405    0.000052155    0.000008199
     14        6          -0.000026158   -0.000075585   -0.000006858
     15        6          -0.000038866    0.000069367   -0.000034595
     16        6          -0.000358888   -0.000266421   -0.000054130
     17        6          -0.015623512   -0.079485574    0.018601514
     18        6           0.004914223    0.028355448    0.016770402
     19        6          -0.033271098    0.010010861    0.003526976
     20        6          -0.019145724   -0.027879438   -0.057506342
     21        6           0.055567431    0.036855001    0.012504796
     22        1           0.000005298    0.000108738    0.000061103
     23        1           0.000238464    0.000074525   -0.000138268
     24        1           0.000027695    0.000350379   -0.000238765
     25        1          -0.000125471   -0.000447085    0.000481499
     26        1          -0.000057632    0.000166427   -0.000091846
     27        1          -0.000049605    0.000194853   -0.000021171
     28        1           0.000001631    0.000014022    0.000002763
     29        1          -0.000007643   -0.000005972    0.000012347
     30        1           0.000016771    0.000007256    0.000003031
     31        1           0.000126524    0.000052172    0.000073142
     32        1           0.000048667    0.000035906   -0.000063788
     33        1          -0.000081479   -0.000069558   -0.000049864
     34        1          -0.000074122   -0.000091059   -0.000062375
     35        1          -0.000166355   -0.000083848   -0.000048419
     36        1          -0.000080366   -0.000094606   -0.000066328
 -------------------------------------------------------------------
 Cartesian Forces:  Max     0.572925513 RMS     0.076875211
 Leave Link  716 at Mon Sep 15 12:50:36 2025, MaxMem=    33554432 cpu:         0.0
 (Enter /appl/g09.shchoi/G09Files/g09/l103.exe)

 GradGradGradGradGradGradGradGradGradGradGradGradGradGradGradGradGradGrad
 Berny optimization.
 FormGI is forming the generalized inverse of G from B-inverse, IUseBI=4.
 Internal  Forces:  Max     0.299595969 RMS     0.030109652
 Search for a local minimum.
 Step number   1 out of a maximum of  216
 All quantities printed in internal units (Hartrees-Bohrs-Radians)
 RMS Force = .30110D-01 SwitMx=.10000D-02 MixMth= 1
 Mixed Optimization -- RFO/linear search
 Second derivative matrix not updated -- first step.
 ITU=  0
     Eigenvalues ---    0.00688   0.00731   0.00903   0.01177   0.01269
     Eigenvalues ---    0.01370   0.01421   0.01523   0.01595   0.01604
     Eigenvalues ---    0.01781   0.01883   0.01957   0.02009   0.02021
     Eigenvalues ---    0.02080   0.02104   0.02212   0.02253   0.02270
     Eigenvalues ---    0.02270   0.02289   0.02483   0.02785   0.03162
     Eigenvalues ---    0.03319   0.03387   0.04034   0.04496   0.04992
     Eigenvalues ---    0.05142   0.05951   0.06337   0.07004   0.07655
     Eigenvalues ---    0.07808   0.08174   0.08951   0.09658   0.10095
     Eigenvalues ---    0.10326   0.10482   0.10906   0.11573   0.11763
     Eigenvalues ---    0.12287   0.13303   0.14290   0.14395   0.14873
     Eigenvalues ---    0.15179   0.15481   0.15812   0.15974   0.15998
     Eigenvalues ---    0.15999   0.16000   0.17593   0.17783   0.18744
     Eigenvalues ---    0.19508   0.19525   0.19868   0.20065   0.20834
     Eigenvalues ---    0.21017   0.22259   0.23752   0.26680   0.28725
     Eigenvalues ---    0.29600   0.30387   0.32887   0.33364   0.33525
     Eigenvalues ---    0.33646   0.34001   0.34083   0.34687   0.34833
     Eigenvalues ---    0.34864   0.34980   0.35261   0.35290   0.35768
     Eigenvalues ---    0.35964   0.36107   0.36152   0.36257   0.36717
     Eigenvalues ---    0.37247   0.37290   0.41863   0.42841   0.43115
     Eigenvalues ---    0.44314   0.46913   0.47866   0.48087   0.48715
     Eigenvalues ---    0.50687   0.52953
 RFO step:  Lambda=-3.87855786D-01 EMin= 6.87632101D-03
 Linear search not attempted -- first point.
 Maximum step size (   0.300) exceeded in Quadratic search.
    -- Step size scaled by   0.436
 Iteration  1 RMS(Cart)=  0.03987678 RMS(Int)=  0.00035958
 Iteration  2 RMS(Cart)=  0.00036015 RMS(Int)=  0.00022697
 Iteration  3 RMS(Cart)=  0.00000024 RMS(Int)=  0.00022697
 ITry= 1 IFail=0 DXMaxC= 2.24D-01 DCOld= 1.00D+10 DXMaxT= 3.00D-01 DXLimC= 3.00D+00 Rises=F
 Variable       Old X    -DE/DX   Delta X   Delta X   Delta X     New X
                                 (Linear)    (Quad)   (Total)
    R1        4.18726   0.07260   0.00000   0.05428   0.05428   4.24154
    R2        4.18789   0.04815   0.00000   0.03602   0.03602   4.22390
    R3        3.71937   0.03723   0.00000   0.03215   0.03195   3.75132
    R4        4.96340   0.08226   0.00000   0.05025   0.05011   5.01351
    R5        3.16026   0.29960   0.00000   0.18255   0.18285   3.34311
    R6        3.60121   0.26124   0.00000   0.16234   0.16272   3.76394
    R7        4.13715   0.02312   0.00000   0.02085   0.02072   4.15787
    R8        2.50841   0.02703   0.00000   0.01026   0.01027   2.51868
    R9        2.56019   0.00088   0.00000  -0.00090  -0.00095   2.55924
   R10        2.74180   0.04474   0.00000   0.02404   0.02414   2.76594
   R11        2.61673  -0.00052   0.00000   0.00017   0.00018   2.61691
   R12        3.34732  -0.03848   0.00000  -0.01932  -0.01885   3.32847
   R13        2.07931  -0.00006   0.00000  -0.00004  -0.00004   2.07927
   R14        2.05707  -0.00001   0.00000  -0.00000  -0.00000   2.05706
   R15        2.62661   0.07917   0.00000   0.04184   0.04102   2.66763
   R16        2.68815   0.04554   0.00000   0.02903   0.02951   2.71765
   R17        2.63538   0.08540   0.00000   0.04843   0.04887   2.68425
   R18        2.08418   0.00037   0.00000   0.00022   0.00022   2.08440
   R19        2.63597  -0.00553   0.00000  -0.00901  -0.00958   2.62639
   R20        2.02175   0.00006   0.00000   0.00003   0.00003   2.02178
   R21        3.22323   0.00316   0.00000  -0.00775  -0.00836   3.21487
   R22        2.05947   0.00015   0.00000   0.00009   0.00009   2.05956
   R23        2.06187   0.00007   0.00000   0.00004   0.00004   2.06191
   R24        2.61720   0.00524   0.00000   0.00240   0.00244   2.61965
   R25        2.03682   0.00001   0.00000   0.00001   0.00001   2.03683
   R26        2.62247   0.00552   0.00000   0.00215   0.00218   2.62465
   R27        2.03914   0.00001   0.00000   0.00000   0.00000   2.03914
   R28        2.62185   0.00013   0.00000  -0.00033  -0.00034   2.62151
   R29        2.03844   0.00001   0.00000   0.00000   0.00000   2.03844
   R30        2.82636   0.02065   0.00000   0.01044   0.01059   2.83695
   R31        2.86271   0.00381   0.00000   0.00379   0.00393   2.86663
   R32        2.07329  -0.00002   0.00000  -0.00001  -0.00001   2.07328
   R33        2.07190   0.00007   0.00000   0.00004   0.00004   2.07194
   R34        2.73903  -0.00988   0.00000  -0.00562  -0.00562   2.73341
   R35        2.82888  -0.02650   0.00000  -0.01630  -0.01634   2.81254
   R36        2.58914   0.02240   0.00000   0.01049   0.01050   2.59964
   R37        2.04446  -0.00002   0.00000  -0.00001  -0.00001   2.04445
   R38        2.79224  -0.02818   0.00000  -0.01672  -0.01671   2.77553
   R39        2.04139   0.00010   0.00000   0.00006   0.00006   2.04144
   R40        2.54723   0.04434   0.00000   0.02107   0.02108   2.56831
   R41        2.05254   0.00016   0.00000   0.00009   0.00009   2.05263
   R42        2.05206  -0.00005   0.00000  -0.00003  -0.00003   2.05203
    A1        1.57083  -0.00776   0.00000  -0.00587  -0.00587   1.56496
    A2        2.26667   0.02143   0.00000   0.01992   0.01992   2.28659
    A3        1.70431   0.02880   0.00000   0.02151   0.02206   1.72637
    A4        1.08399   0.04941   0.00000   0.03496   0.03496   1.11895
    A5        1.88692  -0.03322   0.00000  -0.02385  -0.02404   1.86288
    A6        1.53848  -0.00496   0.00000  -0.00428  -0.00442   1.53406
    A7        1.93098   0.00265   0.00000   0.00143   0.00128   1.93227
    A8        1.53102   0.02088   0.00000   0.01469   0.01435   1.54537
    A9        1.97601  -0.01638   0.00000  -0.01108  -0.01072   1.96529
   A10        1.61024  -0.01685   0.00000  -0.01079  -0.01063   1.59961
   A11        0.93740   0.00750   0.00000   0.00362   0.00369   0.94108
   A12        1.48964  -0.00262   0.00000  -0.00016  -0.00058   1.48905
   A13        2.11999  -0.02063   0.00000  -0.01152  -0.01146   2.10853
   A14        1.20264   0.00723   0.00000   0.00270   0.00278   1.20542
   A15        1.18276  -0.02762   0.00000  -0.01478  -0.01460   1.16816
   A16        2.01997   0.01792   0.00000   0.00807   0.00816   2.02813
   A17        2.69195   0.00442   0.00000   0.00234   0.00199   2.69393
   A18        2.64897   0.03896   0.00000   0.02581   0.02517   2.67414
   A19        2.04225  -0.00689   0.00000  -0.00713  -0.00723   2.03502
   A20        2.09808  -0.00720   0.00000  -0.00345  -0.00345   2.09463
   A21        2.04229   0.01605   0.00000   0.01202   0.01213   2.05443
   A22        1.77624   0.02072   0.00000   0.01606   0.01612   1.79236
   A23        2.18453  -0.01594   0.00000  -0.01108  -0.01117   2.17337
   A24        2.32167  -0.00447   0.00000  -0.00475  -0.00475   2.31692
   A25        1.43991  -0.01745   0.00000  -0.01050  -0.01053   1.42938
   A26        1.49681  -0.01894   0.00000  -0.01111  -0.01124   1.48557
   A27        2.66914   0.02463   0.00000   0.01577   0.01582   2.68495
   A28        1.77274   0.02825   0.00000   0.01911   0.01930   1.79203
   A29        1.86873  -0.01378   0.00000  -0.00779  -0.00801   1.86072
   A30        1.95707   0.00580   0.00000   0.00277   0.00279   1.95986
   A31        1.95064   0.02264   0.00000   0.01250   0.01255   1.96320
   A32        1.99173  -0.04602   0.00000  -0.02758  -0.02770   1.96403
   A33        1.91573   0.00607   0.00000   0.00295   0.00304   1.91877
   A34        1.91744   0.01870   0.00000   0.01701   0.01714   1.93459
   A35        1.64609   0.04857   0.00000   0.03279   0.03287   1.67897
   A36        1.69097  -0.02270   0.00000  -0.02076  -0.02064   1.67033
   A37        2.17717   0.00368   0.00000   0.00991   0.01007   2.18724
   A38        2.21978   0.01512   0.00000   0.00589   0.00589   2.22567
   A39        1.95051  -0.03927   0.00000  -0.02197  -0.02187   1.92864
   A40        1.92024   0.00894   0.00000   0.00613   0.00641   1.92665
   A41        1.87914  -0.01876   0.00000  -0.01584  -0.01599   1.86315
   A42        1.53017   0.03892   0.00000   0.03134   0.03144   1.56160
   A43        2.41279  -0.01948   0.00000  -0.01545  -0.01558   2.39721
   A44        2.32013  -0.02190   0.00000  -0.01778  -0.01776   2.30237
   A45        2.03284  -0.01351   0.00000  -0.01754  -0.01820   2.01465
   A46        2.15323   0.00701   0.00000   0.00921   0.00954   2.16277
   A47        2.08610   0.00724   0.00000   0.00888   0.00923   2.09533
   A48        1.46232   0.04197   0.00000   0.03679   0.03695   1.49928
   A49        2.13164  -0.01214   0.00000  -0.01082  -0.01072   2.12092
   A50        2.00447  -0.01649   0.00000  -0.01598  -0.01587   1.98860
   A51        2.05001   0.00112   0.00000   0.00133   0.00134   2.05135
   A52        2.10291  -0.00056   0.00000  -0.00067  -0.00068   2.10223
   A53        2.13019  -0.00060   0.00000  -0.00068  -0.00068   2.12951
   A54        2.07277   0.00707   0.00000   0.00409   0.00411   2.07688
   A55        2.10653  -0.00354   0.00000  -0.00205  -0.00206   2.10447
   A56        2.10388  -0.00353   0.00000  -0.00205  -0.00206   2.10182
   A57        2.08891   0.00185   0.00000   0.00012   0.00008   2.08899
   A58        2.10921  -0.00095   0.00000  -0.00007  -0.00005   2.10915
   A59        2.08498  -0.00088   0.00000  -0.00004  -0.00002   2.08496
   A60        2.12782  -0.01013   0.00000  -0.00647  -0.00652   2.12131
   A61        1.96869   0.00658   0.00000   0.00368   0.00362   1.97230
   A62        2.18633   0.00362   0.00000   0.00283   0.00293   2.18926
   A63        1.77528   0.00668   0.00000   0.00651   0.00656   1.78184
   A64        1.93790  -0.00160   0.00000  -0.00206  -0.00206   1.93584
   A65        1.92537  -0.00265   0.00000  -0.00189  -0.00192   1.92345
   A66        1.98964  -0.00225   0.00000  -0.00154  -0.00158   1.98806
   A67        1.94043  -0.00111   0.00000  -0.00159  -0.00158   1.93885
   A68        1.89337   0.00098   0.00000   0.00066   0.00066   1.89403
   A69        1.90282  -0.00215   0.00000  -0.00182  -0.00196   1.90087
   A70        1.65233  -0.00105   0.00000  -0.00112  -0.00104   1.65130
   A71        1.67973  -0.00727   0.00000  -0.00731  -0.00728   1.67245
   A72        2.20326   0.00898   0.00000   0.00659   0.00660   2.20987
   A73        2.06373   0.00126   0.00000   0.00270   0.00272   2.06645
   A74        1.84287  -0.00484   0.00000  -0.00393  -0.00400   1.83887
   A75        1.81101   0.01563   0.00000   0.01153   0.01149   1.82251
   A76        2.20687  -0.00670   0.00000  -0.00501  -0.00502   2.20185
   A77        2.23914  -0.00727   0.00000  -0.00483  -0.00482   2.23433
   A78        1.91030  -0.00645   0.00000  -0.00440  -0.00441   1.90589
   A79        2.21903   0.00292   0.00000   0.00200   0.00201   2.22103
   A80        2.15270   0.00348   0.00000   0.00233   0.00233   2.15503
   A81        1.86777  -0.00515   0.00000  -0.00190  -0.00191   1.86586
   A82        2.11408   0.00284   0.00000   0.00182   0.00184   2.11592
   A83        2.20798   0.00461   0.00000   0.00262   0.00260   2.21058
   A84        1.78737   0.01245   0.00000   0.01079   0.01072   1.79809
   A85        2.17526  -0.00575   0.00000  -0.00414  -0.00414   2.17113
   A86        2.23394  -0.00153   0.00000  -0.00126  -0.00127   2.23266
   A87        3.10931  -0.01272   0.00000  -0.01015  -0.01029   3.09902
   A88        3.36718   0.00405   0.00000   0.00534   0.00564   3.37282
   A89        3.19523   0.02598   0.00000   0.02125   0.02124   3.21648
   A90        3.05081   0.01465   0.00000   0.01051   0.01083   3.06163
    D1        1.76752   0.01236   0.00000   0.00879   0.00868   1.77621
    D2       -0.89368   0.00358   0.00000   0.00230   0.00217  -0.89151
    D3       -0.28267   0.00783   0.00000   0.00482   0.00483  -0.27784
    D4       -2.94387  -0.00095   0.00000  -0.00167  -0.00168  -2.94555
    D5        0.23402  -0.00908   0.00000  -0.00630  -0.00609   0.22793
    D6       -2.42718  -0.01785   0.00000  -0.01280  -0.01261  -2.43979
    D7       -0.26181   0.04084   0.00000   0.02802   0.02729  -0.23452
    D8       -2.92301   0.03206   0.00000   0.02153   0.02078  -2.90223
    D9       -2.89008  -0.00419   0.00000  -0.00127  -0.00116  -2.89124
   D10        0.73191  -0.01297   0.00000  -0.00777  -0.00768   0.72423
   D11       -2.90520  -0.00752   0.00000  -0.00515  -0.00511  -2.91030
   D12        1.49552   0.00131   0.00000  -0.00031  -0.00020   1.49532
   D13       -0.71882  -0.00302   0.00000  -0.00310  -0.00299  -0.72181
   D14       -1.01434  -0.00180   0.00000   0.00110   0.00112  -1.01322
   D15       -2.89680   0.00703   0.00000   0.00594   0.00603  -2.89078
   D16        1.17204   0.00270   0.00000   0.00315   0.00324   1.17528
   D17        0.23136  -0.00629   0.00000  -0.00383  -0.00382   0.22754
   D18       -1.65111   0.00254   0.00000   0.00101   0.00108  -1.65002
   D19        2.41773  -0.00179   0.00000  -0.00179  -0.00170   2.41603
   D20       -2.89101   0.02458   0.00000   0.01779   0.01739  -2.87362
   D21        1.50971   0.03341   0.00000   0.02264   0.02230   1.53201
   D22       -0.70464   0.02908   0.00000   0.01984   0.01951  -0.68513
   D23        0.78681  -0.01181   0.00000  -0.00717  -0.00701   0.77980
   D24       -1.09565  -0.00298   0.00000  -0.00233  -0.00210  -1.09776
   D25        2.97319  -0.00731   0.00000  -0.00512  -0.00489   2.96829
   D26        1.48965  -0.00380   0.00000  -0.00525  -0.00582   1.48383
   D27       -0.53013   0.00099   0.00000   0.00029  -0.00014  -0.53027
   D28        3.05762  -0.01321   0.00000  -0.01225  -0.01242   3.04519
   D29        1.03784  -0.00841   0.00000  -0.00671  -0.00674   1.03109
   D30       -1.68879  -0.01719   0.00000  -0.01613  -0.01643  -1.70522
   D31        2.57462  -0.01240   0.00000  -0.01059  -0.01074   2.56387
   D32       -1.77866   0.02021   0.00000   0.01369   0.01325  -1.76540
   D33        2.48475   0.02501   0.00000   0.01923   0.01894   2.50369
   D34        2.20519  -0.01384   0.00000  -0.01094  -0.01043   2.19476
   D35       -0.79269  -0.01284   0.00000  -0.00938  -0.00886  -0.80156
   D36       -2.73619   0.01474   0.00000   0.00847   0.00793  -2.72826
   D37        0.54911   0.01575   0.00000   0.01004   0.00950   0.55861
   D38       -0.94226  -0.01556   0.00000  -0.01181  -0.01186  -0.95412
   D39        2.34305  -0.01455   0.00000  -0.01025  -0.01030   2.33275
   D40       -0.92409   0.01349   0.00000   0.00855   0.00802  -0.91607
   D41        2.36121   0.01450   0.00000   0.01011   0.00959   2.37080
   D42        0.87915   0.00199   0.00000  -0.00071  -0.00126   0.87789
   D43       -2.11873   0.00300   0.00000   0.00085   0.00030  -2.11843
   D44        2.30874  -0.00481   0.00000  -0.00369  -0.00354   2.30521
   D45        0.02304  -0.01355   0.00000  -0.00982  -0.00968   0.01336
   D46       -1.83173  -0.00765   0.00000  -0.00483  -0.00466  -1.83638
   D47        0.72500   0.01034   0.00000   0.00707   0.00684   0.73184
   D48       -1.56070   0.00159   0.00000   0.00094   0.00070  -1.56000
   D49        2.86771   0.00749   0.00000   0.00593   0.00572   2.87344
   D50       -0.79589   0.00870   0.00000   0.00731   0.00732  -0.78857
   D51       -3.08159  -0.00005   0.00000   0.00118   0.00118  -3.08041
   D52        1.34682   0.00585   0.00000   0.00617   0.00621   1.35303
   D53       -1.26890   0.01185   0.00000   0.00924   0.00912  -1.25977
   D54        2.72858   0.00311   0.00000   0.00310   0.00298   2.73157
   D55        0.87382   0.00901   0.00000   0.00809   0.00801   0.88182
   D56       -0.83601  -0.00288   0.00000  -0.00443  -0.00421  -0.84022
   D57       -3.12172  -0.01163   0.00000  -0.01056  -0.01035  -3.13207
   D58        1.30670  -0.00573   0.00000  -0.00557  -0.00533   1.30137
   D59       -2.84960   0.01889   0.00000   0.01335   0.01324  -2.83636
   D60        1.14788   0.01015   0.00000   0.00722   0.00710   1.15498
   D61       -0.70689   0.01605   0.00000   0.01221   0.01213  -0.69476
   D62        0.42873  -0.00772   0.00000  -0.00423  -0.00423   0.42450
   D63       -2.67599  -0.01552   0.00000  -0.00987  -0.00988  -2.68587
   D64        3.10549  -0.00547   0.00000  -0.00206  -0.00207   3.10342
   D65        0.00077  -0.01327   0.00000  -0.00770  -0.00772  -0.00694
   D66        2.66055   0.00988   0.00000   0.00551   0.00549   2.66604
   D67       -0.50803   0.01247   0.00000   0.00693   0.00688  -0.50116
   D68       -0.00064   0.00719   0.00000   0.00410   0.00411   0.00347
   D69        3.11396   0.00978   0.00000   0.00552   0.00549   3.11945
   D70       -0.28372   0.00514   0.00000   0.00167   0.00166  -0.28206
   D71       -0.87903  -0.05092   0.00000  -0.03175  -0.03186  -0.91089
   D72        1.16839  -0.01826   0.00000  -0.01220  -0.01224   1.15615
   D73       -3.01260  -0.01632   0.00000  -0.01199  -0.01206  -3.02466
   D74        2.81664   0.01358   0.00000   0.00784   0.00785   2.82449
   D75        2.22133  -0.04248   0.00000  -0.02558  -0.02567   2.19566
   D76       -2.01444  -0.00983   0.00000  -0.00603  -0.00604  -2.02048
   D77        0.08776  -0.00788   0.00000  -0.00582  -0.00586   0.08189
   D78        0.00358   0.01031   0.00000   0.00614   0.00614   0.00972
   D79        3.13265   0.00687   0.00000   0.00442   0.00439   3.13704
   D80       -3.08863  -0.00056   0.00000  -0.00180  -0.00175  -3.09038
   D81        0.04044  -0.00400   0.00000  -0.00353  -0.00351   0.03694
   D82        2.46131  -0.02425   0.00000  -0.01409  -0.01444   2.44687
   D83       -2.09537  -0.02776   0.00000  -0.02170  -0.02130  -2.11667
   D84        0.47423  -0.03237   0.00000  -0.02023  -0.02083   0.45340
   D85        2.20073  -0.03588   0.00000  -0.02783  -0.02769   2.17304
   D86       -1.71241  -0.02235   0.00000  -0.01241  -0.01299  -1.72540
   D87        0.01409  -0.02585   0.00000  -0.02001  -0.01985  -0.00575
   D88        0.40461   0.08796   0.00000   0.06344   0.06311   0.46771
   D89        2.49117   0.04502   0.00000   0.03347   0.03352   2.52469
   D90       -1.29069   0.04117   0.00000   0.03319   0.03288  -1.25781
   D91        0.79587  -0.00177   0.00000   0.00321   0.00329   0.79916
   D92       -1.06132  -0.01535   0.00000  -0.01643  -0.01575  -1.07707
   D93       -3.07745  -0.02050   0.00000  -0.01911  -0.01853  -3.09598
   D94        0.86950   0.00842   0.00000   0.00338   0.00381   0.87331
   D95       -1.14663   0.00326   0.00000   0.00070   0.00104  -1.14560
   D96        1.89993   0.02290   0.00000   0.01857   0.01796   1.91789
   D97       -1.45136   0.01041   0.00000   0.00895   0.00847  -1.44289
   D98        0.74893  -0.00106   0.00000   0.00220   0.00271   0.75164
   D99       -2.60236  -0.01355   0.00000  -0.00742  -0.00678  -2.60914
   D100      -1.36170   0.02416   0.00000   0.01841   0.01781  -1.34389
   D101       1.57020   0.01167   0.00000   0.00880   0.00832   1.57851
   D102      -0.05981  -0.01256   0.00000  -0.00840  -0.00857  -0.06838
   D103       2.92180  -0.00664   0.00000  -0.00374  -0.00379   2.91801
   D104      -3.01090  -0.00096   0.00000   0.00046   0.00022  -3.01068
   D105      -0.02929   0.00496   0.00000   0.00513   0.00500  -0.02429
   D106      -0.57209   0.00357   0.00000   0.00497   0.00503  -0.56707
   D107       1.56819   0.00744   0.00000   0.00791   0.00795   1.57613
   D108       2.72299  -0.00218   0.00000   0.00034   0.00028   2.72327
   D109      -1.41991   0.00169   0.00000   0.00328   0.00320  -1.41671
   D110      -0.00791  -0.00105   0.00000  -0.00086  -0.00090  -0.00881
   D111       3.13095  -0.00312   0.00000  -0.00177  -0.00180   3.12916
   D112      -3.13677   0.00244   0.00000   0.00090   0.00088  -3.13589
   D113       0.00209   0.00038   0.00000  -0.00002  -0.00001   0.00207
   D114       0.00819  -0.00417   0.00000  -0.00224  -0.00226   0.00593
   D115       3.13566  -0.00272   0.00000  -0.00141  -0.00138   3.13428
   D116      -3.13068  -0.00211   0.00000  -0.00133  -0.00136  -3.13204
   D117      -0.00320  -0.00066   0.00000  -0.00050  -0.00048  -0.00369
   D118      -0.00389   0.00119   0.00000   0.00067   0.00071  -0.00318
   D119      -3.11500  -0.00174   0.00000  -0.00093  -0.00084  -3.11584
   D120      -3.13156  -0.00024   0.00000  -0.00015  -0.00016  -3.13172
   D121       0.04051  -0.00317   0.00000  -0.00175  -0.00170   0.03880
   D122      -0.22056  -0.00203   0.00000  -0.00063  -0.00064  -0.22120
   D123      -2.34379  -0.00249   0.00000  -0.00160  -0.00159  -2.34538
   D124       1.83977  -0.00092   0.00000   0.00018   0.00019   1.83995
   D125       2.89297   0.00041   0.00000   0.00068   0.00063   2.89360
   D126       0.76974  -0.00004   0.00000  -0.00028  -0.00032   0.76942
   D127      -1.32989   0.00153   0.00000   0.00149   0.00146  -1.32843
   D128       0.74706  -0.00494   0.00000  -0.00343  -0.00347   0.74359
   D129       2.68560  -0.00253   0.00000  -0.00238  -0.00242   2.68318
   D130      -1.14499   0.00499   0.00000   0.00554   0.00555  -1.13944
   D131       2.83402  -0.00376   0.00000  -0.00257  -0.00259   2.83144
   D132      -1.51062  -0.00135   0.00000  -0.00152  -0.00154  -1.51216
   D133       0.94198   0.00616   0.00000   0.00640   0.00643   0.94841
   D134      -1.30242  -0.00502   0.00000  -0.00409  -0.00412  -1.30655
   D135       0.63611  -0.00262   0.00000  -0.00304  -0.00307   0.63304
   D136       3.08872   0.00490   0.00000   0.00488   0.00489   3.09361
   D137      -1.24010  -0.00301   0.00000  -0.00441  -0.00447  -1.24458
   D138       1.67295   0.00365   0.00000   0.00258   0.00250   1.67546
   D139       2.98823  -0.00353   0.00000  -0.00416  -0.00413   2.98411
   D140      -0.38190   0.00313   0.00000   0.00283   0.00285  -0.37904
   D141       0.46716  -0.01150   0.00000  -0.01285  -0.01285   0.45431
   D142      -2.90297  -0.00484   0.00000  -0.00587  -0.00587  -2.90884
   D143       1.07473   0.01481   0.00000   0.01483   0.01491   1.08964
   D144      -1.65916   0.00296   0.00000   0.00255   0.00263  -1.65653
   D145       3.09109   0.00801   0.00000   0.00894   0.00888   3.09997
   D146       0.35720  -0.00384   0.00000  -0.00334  -0.00340   0.35380
   D147      -0.61189   0.01873   0.00000   0.01871   0.01866  -0.59323
[...]
 ! D145  D(16,17,21,20)        175.3984         -DE/DX =    0.0                 !
 ! D146  D(16,17,21,36)        -12.9453         -DE/DX =    0.0                 !
 ! D147  D(18,17,21,20)          1.0707         -DE/DX =    0.0                 !
 ! D148  D(18,17,21,36)        172.727          -DE/DX =    0.0                 !
 ! D149  D(17,18,19,20)          1.579          -DE/DX =    0.0                 !
 ! D150  D(17,18,19,34)       -173.8694         -DE/DX =    0.0                 !
 ! D151  D(33,18,19,20)        175.2888         -DE/DX =    0.0                 !
 ! D152  D(33,18,19,34)         -0.1596         -DE/DX =    0.0                 !
 ! D153  D(18,19,20,21)         -0.9141         -DE/DX =    0.0                 !
 ! D154  D(18,19,20,35)       -173.5693         -DE/DX =    0.0                 !
 ! D155  D(34,19,20,21)        174.552          -DE/DX =    0.0                 !
 ! D156  D(34,19,20,35)          1.8968         -DE/DX =    0.0                 !
 ! D157  D(19,20,21,17)         -0.0986         -DE/DX =    0.0                 !
 ! D158  D(19,20,21,36)       -171.6703         -DE/DX =    0.0                 !
 ! D159  D(35,20,21,17)        172.5085         -DE/DX =    0.0                 !
 ! D160  D(35,20,21,36)          0.9368         -DE/DX =    0.0                 !
 --------------------------------------------------------------------------------
 GradGradGradGradGradGradGradGradGradGradGradGradGradGradGradGradGradGrad

 Largest change from initial coordinates is atom   25       1.241 Angstoms.
 Leave Link  103 at Mon Sep 15 12:50:53 2025, MaxMem=    33554432 cpu:         0.0
 (Enter /appl/g09.shchoi/G09Files/g09/l202.exe)
                          Input orientation:                          
 ---------------------------------------------------------------------
 Center     Atomic      Atomic             Coordinates (Angstroms)
 Number     Number       Type             X           Y           Z
 ---------------------------------------------------------------------
      1         40           0        0.316528   -0.311291   -0.344870
      2         17           0        0.644864    0.405943   -2.541190
      3         17           0        2.591042   -0.068411    0.159836
      4          7           0        0.237291   -0.154634    1.942642
      5          6           0        0.390098    1.097915    2.391003
      6          6           0        0.150154    2.188374    1.383773
      7          6           0       -0.587519    1.609728    0.171506
      8          6           0       -2.110910    1.646976    0.117575
      9          6           0       -2.638450    2.940742    0.713631
     10          6           0       -1.903513    3.709338   -0.087485
     11          6           0       -1.279902    2.524602   -0.807301
     12          6           0        0.752395    1.351471    3.709375
     13          6           0        0.973789    0.282640    4.562136
     14          6           0        0.813077   -1.007453    4.084949
     15          6           0        0.439830   -1.191301    2.758309
     16          6           0        0.226954   -2.571264    2.178532
     17          6           0       -0.167344   -2.497284    0.729680
     18          6           0        0.651238   -2.804576   -0.380182
     19          6           0       -0.075938   -2.510645   -1.552373
     20          6           0       -1.331368   -1.986875   -1.175452
     21          6           0       -1.391980   -1.975379    0.240133
     22          1           0       -0.386829    3.021181    1.857954
     23          1           0        1.129175    2.567997    1.049518
     24          1           0       -2.727733    0.799444   -0.167205
     25          1           0       -3.306251    3.120517    1.536354
     26          1           0       -1.732313    4.765288   -0.178706
     27          1           0       -1.170204    2.440345   -1.879797
     28          1           0        0.866578    2.367663    4.052571
     29          1           0        1.266530    0.452590    5.587337
     30          1           0        0.975293   -1.860723    4.724847
     31          1           0       -0.546432   -3.077737    2.767798
     32          1           0        1.152918   -3.144491    2.288758
     33          1           0        1.622823   -3.285772   -0.337161
     34          1           0        0.239811   -2.724005   -2.566421
     35          1           0       -2.147940   -1.759404   -1.851037
     36          1           0       -2.265868   -1.751654    0.842607
 ---------------------------------------------------------------------
                    Distance matrix (angstroms):
                    1          2          3          4          5
     1  Zr   0.000000
     2  Cl   2.333677   0.000000
     3  Cl   2.342463   3.362762   0.000000
     4  N    2.294239   4.537082   2.953976   0.000000
     5  C    3.078355   4.987009   3.344036   1.339125   0.000000
     6  C    3.043716   4.339024   3.542461   2.410314   1.503724
     7  C    2.185007   3.213501   3.594376   2.632529   2.478679
     8  C    3.152954   4.025356   5.005267   3.477171   3.424176
     9  C    4.519738   5.272496   6.058818   4.400194   3.921949
    10  C    4.600031   4.840177   5.876528   4.861558   4.268850
    11  C    3.287053   3.346612   4.758495   4.128240   3.879881
    12  C    4.403596   6.322591   4.242159   2.378030   1.390560
    13  C    4.986327   7.112007   4.703083   2.755973   2.391483
    14  C    4.511596   6.777293   4.410155   2.376617   2.735131
    15  C    3.227900   5.538765   3.555369   1.334546   2.319030
    16  C    3.388667   5.595908   3.991030   2.428138   3.678945
    17  C    2.483416   4.448258   3.719252   2.668898   3.999523
    18  C    2.515900   3.870068   3.397214   3.548106   4.793443
    19  C    2.539538   3.162878   4.001119   4.226587   5.365548
    20  C    2.492591   3.390621   4.566048   3.942120   5.019857
    21  C    2.455691   4.189891   4.416722   2.977948   4.152972
    22  H    4.056169   5.220759   4.614856   3.237668   2.141660
    23  H    3.300760   4.219268   3.143126   3.000975   2.122960
    24  H    3.245430   4.143073   5.399027   3.762059   4.044055
    25  H    5.332995   6.293376   6.844131   4.842352   4.299341
    26  H    5.476953   5.498745   6.493894   5.708335   4.955568
    27  H    3.483944   2.805478   4.959933   4.829700   4.740927
    28  H    5.178498   6.882964   4.905264   3.348101   2.144785
    29  H    6.056162   8.152398   5.611019   3.835603   3.376556
    30  H    5.341979   7.618547   5.163560   3.346050   3.813505
    31  H    4.252837   6.460694   5.069640   3.136819   4.295943
    32  H    3.957596   6.015987   4.007839   3.146015   4.311653
    33  H    3.248693   4.409411   3.396449   4.113542   5.308409
    34  H    3.280605   3.156150   4.473583   5.189733   6.261446
    35  H    3.230970   3.600665   5.418580   4.759896   5.709711
    36  H    3.186458   4.957587   5.185466   3.166442   4.191864
                    6          7          8          9         10
     6  C    0.000000
     7  C    1.532509   0.000000
     8  C    2.647410   1.524800   0.000000
     9  C    2.965040   2.504359   1.519017   0.000000
    10  C    2.948810   2.491441   2.082883   1.331412   0.000000
    11  C    2.637976   1.508128   1.521906   2.081360   1.520074
    12  C    2.543919   3.791910   4.602919   4.795633   5.198994
    13  C    3.796339   4.845253   5.579508   5.909718   6.452915
    14  C    4.236641   4.911857   5.597834   6.234346   6.858366
    15  C    3.659981   3.948767   4.640643   5.543492   6.132379
    16  C    4.826147   4.708738   5.244683   6.382687   7.008544
    17  C    4.741733   4.166011   4.618118   5.973169   6.496476
    18  C    5.319039   4.617895   5.262465   6.710228   7.003107
    19  C    5.545525   4.495658   4.920940   6.435749   6.646361
    20  C    5.116370   3.911925   3.935032   5.436774   5.827338
    21  C    4.585077   3.674896   3.695042   5.093735   5.717081
    22  H    1.098529   2.208298   2.808881   2.527002   2.560981
    23  H    1.101963   2.153189   3.494989   3.800889   3.434040
    24  H    3.552027   2.313396   1.086223   2.317111   3.025422
    25  H    3.583142   3.396586   2.369197   1.074779   2.225138
    26  H    3.553240   3.375021   3.155153   2.224031   1.073620
    27  H    3.529550   2.288512   2.346030   3.021921   2.315268
    28  H    2.769096   4.213256   4.986884   4.874645   5.158833
    29  H    4.682861   5.840179   6.538497   6.722557   7.270432
    30  H    5.314020   5.934587   6.561673   7.225168   7.903900
    31  H    5.489324   5.358614   5.638633   6.694642   7.487236
    32  H    5.501270   5.487665   6.190700   7.340678   7.871676
    33  H    5.924242   5.395394   6.203189   7.617880   7.837663
    34  H    6.304248   5.192491   5.642269   7.150699   7.219894
    35  H    5.597336   4.228077   3.934492   5.376755   5.751260
    36  H    4.653369   3.816558   3.478558   4.708931   5.551469
                   11         12         13         14         15
    11  C    0.000000
    12  C    5.089875   0.000000
    13  C    6.239902   1.385141   0.000000
    14  C    6.386711   2.389406   1.384874   0.000000
    15  C    5.429455   2.732749   2.389855   1.390355   0.000000
    16  C    6.095381   4.243515   3.792638   2.534457   1.511871
    17  C    5.368373   4.953525   4.870101   3.799822   2.487887
    18  C    5.684353   5.831590   5.836219   4.815936   3.535176
    19  C    5.230523   6.579367   6.803793   5.901638   4.537473
    20  C    4.526765   6.272811   6.586681   5.764523   4.386861
    21  C    4.621635   5.263261   5.419891   4.536713   3.211155
    22  H    2.854427   2.741081   4.082094   4.757013   4.386229
    23  H    3.041926   2.949023   4.193506   4.700809   4.186584
    24  H    2.341390   5.238692   6.027854   5.820913   4.749227
    25  H    3.154984   4.931952   5.960508   6.364302   5.841068
    26  H    2.370756   5.739782   7.063477   7.614611   6.987504
    27  H    1.081379   6.010065   7.123967   7.169303   6.106806
    28  H    5.315107   1.078642   2.149063   3.375696   3.810965
    29  H    7.188111   2.144542   1.079637   2.143482   3.374790
    30  H    7.410913   3.376249   2.149530   1.078820   2.145255
    31  H    6.686218   4.710775   4.101567   2.805214   2.128719
    32  H    6.902377   4.732044   4.116498   2.812245   2.131647
    33  H    6.512088   6.215796   6.095730   5.039988   3.920231
    34  H    5.740375   7.500524   7.771420   6.893178   5.544541
    35  H    4.493949   7.000547   7.419159   6.676000   5.316517
    36  H    4.688357   5.192076   5.335600   4.532826   3.362248
                   16         17         18         19         20
    16  C    0.000000
    17  C    1.503368   0.000000
    18  C    2.604125   1.412904   0.000000
    19  C    3.743671   2.283922   1.410394   0.000000
    20  C    3.744207   2.290196   2.287316   1.411562   0.000000
    21  C    2.594883   1.418370   2.290654   2.287259   1.416929
    22  H    5.635152   5.636898   6.326632   6.506003   5.930794
    23  H    5.338603   5.238352   5.580055   5.832216   5.634858
    24  H    5.059084   4.269474   4.944872   4.461770   3.275663
    25  H    6.729956   6.485611   7.378452   7.189238   6.110606
    26  H    7.951119   7.484600   7.938813   7.587473   6.837102
    27  H    6.598356   5.674088   5.751147   5.081036   4.485794
    28  H    5.321104   5.981497   6.815257   7.490102   7.150188
    29  H    4.673795   5.861278   6.826346   7.845918   7.644303
    30  H    2.747472   4.203830   5.201653   6.397732   6.336413
    31  H    1.096300   2.152802   3.379172   4.382560   4.165972
    32  H    1.094600   2.143057   2.736872   4.082418   4.417296
    33  H    2.964403   2.228130   1.085071   2.227859   3.334233
    34  H    4.747428   3.328883   2.226074   1.083288   2.224131
    35  H    4.747279   3.335764   3.330344   2.224130   1.083950
    36  H    2.944591   2.229915   3.333671   3.332835   2.236332
                   21         22         23         24         25
    21  C    0.000000
    22  H    5.347268   0.000000
    23  H    5.258668   1.776854   0.000000
    24  H    3.106413   3.810146   4.414061   0.000000
    25  H    5.595782   2.938761   4.496141   2.936695   0.000000
    26  H    6.762237   3.000037   3.811133   4.088877   2.850259
    27  H    4.903254   3.862878   3.726168   2.837502   4.086002
    28  H    6.204658   2.610452   3.021162   5.760633   4.930582
    29  H    6.446339   4.820742   5.008554   7.013501   6.666230
    30  H    5.072453   5.823009   5.757194   6.687380   7.301428
    31  H    2.884308   6.168475   6.134693   5.329620   6.895753
    32  H    3.469898   6.369609   5.845408   6.053580   7.726618
    33  H    3.337579   6.973872   6.035991   5.970361   8.297371
    34  H    3.331656   7.278388   6.470802   5.193962   7.972814
    35  H    2.234080   6.301754   6.154600   3.117555   6.052249
    36  H    1.084762   5.228926   5.498046   2.782290   5.030082
                   26         27         28         29         30
    26  H    0.000000
    27  H    2.935139   0.000000
    28  H    5.514213   6.272699   0.000000
    29  H    7.799979   8.102279   2.486558   0.000000
    30  H    8.676403   8.168455   4.282875   2.485985   0.000000
    31  H    8.461752   7.241440   5.770582   4.868248   2.761668
    32  H    8.773684   7.346028   5.794555   4.881856   2.759373
    33  H    8.723624   6.555085   7.197429   7.014411   5.298489
    34  H    8.104318   5.397231   8.374305   8.810714   7.378942
    35  H    6.748410   4.312155   7.808494   8.478261   7.280597
    36  H    6.618028   5.117110   6.089733   6.312605   5.058538
                   31         32         33         34         35
    31  H    0.000000
    32  H    1.766841   0.000000
    33  H    3.793378   2.671371   0.000000
    34  H    5.403443   4.958159   2.682892   0.000000
    35  H    5.063246   5.472845   4.340538   2.672748   0.000000
    36  H    2.901950   3.964776   4.343650   4.341126   2.696235
                   36
    36  H    0.000000
 Stoichiometry    C17H15Cl2NZr
 Framework group  C1[X(C17H15Cl2NZr)]
 Deg. of freedom   102
 Full point group                 C1      NOp   1
 RotChk:  IX=0 Diff= 1.34D-14
 Largest Abelian subgroup         C1      NOp   1
 Largest concise Abelian subgroup C1      NOp   1
                         Standard orientation:                         
 ---------------------------------------------------------------------
 Center     Atomic      Atomic             Coordinates (Angstroms)
 Number     Number       Type             X           Y           Z
 ---------------------------------------------------------------------
      1         40           0        0.656265   -0.560318    0.213151
      2         17           0        2.809513   -0.590161    1.112419
      3         17           0       -0.313650   -0.917766    2.315204
      4          7           0       -1.472084    0.212662   -0.155856
      5          6           0       -1.690586    1.425831    0.367339
      6          6           0       -0.462354    2.229046    0.695175
      7          6           0        0.752884    1.611602   -0.005214
      8          6           0        1.171050    2.108522   -1.384788
      9          6           0        0.980569    3.611489   -1.495323
     10          6           0        1.719695    3.870293   -0.418581
     11          6           0        2.026588    2.403925   -0.161272
     12          6           0       -2.981662    1.892438    0.588827
     13          6           0       -4.054248    1.073887    0.275540
     14          6           0       -3.813763   -0.178675   -0.264024
     15          6           0       -2.498632   -0.580463   -0.469168
     16          6           0       -2.165709   -1.925797   -1.073316
     17          6           0       -0.678964   -2.118172   -1.185997
     18          6           0        0.124417   -2.948541   -0.372752
     19          6           0        1.469275   -2.762825   -0.754956
     20          6           0        1.508967   -1.792106   -1.778986
     21          6           0        0.177939   -1.388069   -2.048807
     22          1           0       -0.624524    3.282300    0.428488
     23          1           0       -0.301163    2.180154    1.784188
     24          1           0        1.422374    1.453394   -2.213958
     25          1           0        0.390066    4.202343   -2.171598
     26          1           0        1.972151    4.755616    0.133803
     27          1           0        3.005228    2.008930    0.074572
     28          1           0       -3.137051    2.874308    1.007460
     29          1           0       -5.066132    1.408457    0.448084
     30          1           0       -4.627687   -0.838407   -0.521190
     31          1           0       -2.642944   -1.989540   -2.058231
     32          1           0       -2.601032   -2.709515   -0.445282
     33          1           0       -0.239743   -3.680396    0.340799
     34          1           0        2.318452   -3.324653   -0.385144
     35          1           0        2.389209   -1.507600   -2.343943
     36          1           0       -0.145681   -0.750848   -2.864852
 ---------------------------------------------------------------------
 Rotational constants (GHZ):      0.3088917      0.2911310      0.2066542
 Leave Link  202 at Mon Sep 15 12:50:53 2025, MaxMem=    33554432 cpu:         0.0
 (Enter /appl/g09.shchoi/G09Files/g09/l601.exe)
 Leave Link  601 at Mon Sep 15 12:50:53 2025, MaxMem=    33554432 cpu:         0.0
 (Enter /appl/g09.shchoi/G09Files/g09/l9999.exe)
 1\1\GINC-MASTER\FOpt\RExternal='/home/rxn_grp/programs/xtb-gaussian'\Z
 DO\C17H15Cl2N1Zr1\RXN_GRP\15-Sep-2025\0\\#p external='/home/rxn_grp/pr
 ograms/xtb-gaussian' /sdd opt(nomicro)\\R\\0,1\Zr,0.3165277521,-0.3112
 907425,-0.3448701606\Cl,0.6448639926,0.4059426878,-2.5411901312\Cl,2.5
 910420898,-0.068411327,0.1598364445\N,0.2372914572,-0.1546340809,1.942
 6423221\C,0.3900976037,1.0979147814,2.3910025074\C,0.1501543953,2.1883
 737013,1.3837729776\C,-0.5875189875,1.6097276712,0.1715060167\C,-2.110
 9100322,1.646975938,0.1175754187\C,-2.6384495672,2.9407423898,0.713630
 8632\C,-1.9035126606,3.7093382834,-0.0874853463\C,-1.2799018127,2.5246
 016189,-0.8073009617\C,0.7523953,1.3514707812,3.709375026\C,0.97378916
 63,0.2826397511,4.5621363444\C,0.8130769842,-1.0074533199,4.0849489216
 \C,0.4398304733,-1.1913014372,2.7583086078\C,0.2269539381,-2.571264477
 4,2.178532003\C,-0.1673442034,-2.4972839139,0.7296802917\C,0.651237513
 4,-2.8045764347,-0.3801819798\C,-0.0759383526,-2.510645045,-1.55237310
 96\C,-1.3313678493,-1.9868748507,-1.1754518192\C,-1.3919797373,-1.9753
 791073,0.2401331492\H,-0.3868288065,3.021180557,1.8579537182\H,1.12917
 49431,2.567997276,1.0495181182\H,-2.7277326165,0.7994437873,-0.1672052
 417\H,-3.3062507997,3.1205170044,1.5363536016\H,-1.7323133793,4.765288
 02,-0.1787055522\H,-1.1702040798,2.4403445783,-1.8797967355\H,0.866577
 7923,2.3676629217,4.0525711413\H,1.2665297022,0.4525896215,5.587336724
 4\H,0.9752925824,-1.8607227608,4.7248470603\H,-0.5464318395,-3.0777370
 176,2.7677977666\H,1.1529184449,-3.1444906605,2.2887582125\H,1.6228233
 882,-3.2857723632,-0.3371608715\H,0.239810825,-2.7240054478,-2.5664211
 67\H,-2.1479395086,-1.7594036758,-1.8510366219\H,-2.2658681116,-1.7516
 537082,0.842607461\\Version=ES64L-G09RevD.01\HF=-57.8037972\RMSD=0.000
 e+00\RMSF=1.079e-05\Dipole=-1.273082,-0.5828733,3.1464691\PG=C01 [X(C1
 7H15Cl2N1Zr1)]\\@


 TRUTH, IN SCIENCE, CAN BE DEFINED AS THE WORKING HYPOTHESIS 
 BEST FITTED TO OPEN THE WAY TO THE NEXT BETTER ONE.

                              -- KONRAD LORENZ
 Job cpu time:       0 days  0 hours  0 minutes  2.8 seconds.
 File lengths (MBytes):  RWF=     10 Int=      0 D2E=      0 Chk=      3 Scr=      1
 Normal termination of Gaussian 09 at Mon Sep 15 12:50:53 2025.
