 Entering Gaussian System, Link 0=g09
 Input=final_relax_0.com
 Output=final_relax_0.log
 Initial command:
 /appl/g09.shchoi/G09Files/g09/l1.exe "/home/rxn_grp/scratch/Gau-2492299.inp" -scrdir="/home/rxn_grp/scratch/"
 Entering Link 1 = /appl/g09.shchoi/G09Files/g09/l1.exe PID=   2492301.
  
 Copyright (c) 1988,1990,1992,1993,1995,1998,2003,2009,2013,
            Gaussian, Inc.  All Rights Reserved.
  
 This is part of the Gaussian(R) 09 program.  It is based on
 the Gaussian(R) 03 system (copyright 2003, Gaussian, Inc.),
 the Gaussian(R) 98 system (copyright 1998, Gaussian, Inc.),
 the Gaussian(R) 94 system (copyright 1995, Gaussian, Inc.),
 the Gaussian 92(TM) system (copyright 1992, Gaussian, Inc.),
 the Gaussian 90(TM) system (copyright 1990, Gaussian, Inc.),
 the Gaussian 88(TM) system (copyright 1988, Gaussian, Inc.),
 the Gaussian 86(TM) system (copyright 1986, Carnegie Mellon
 University), and the Gaussian 82(TM) system (copyright 1983,
 Carnegie Mellon University). Gaussian is a federally registered
 trademark of Gaussian, Inc.
  
 This software contains proprietary and confidential information,
 including trade secrets, belonging to Gaussian, Inc.
  
 This software is provided under written license and may be
 used, copied, transmitted, or stored only in accord with that
 written license.
  
 The following legend is applicable only to US Government
 contracts under FAR:
  
                    RESTRICTED RIGHTS LEGEND
  
 Use, reproduction and disclosure by the US Government is
 subject to restrictions as set forth in subparagraphs (a)
 and (c) of the Commercial Computer Software - Restricted
 Rights clause in FAR 52.227-19.
  
 Gaussian, Inc.
 340 Quinnipiac St., Bldg. 40, Wallingford CT 06492
  
  
 ---------------------------------------------------------------
 Warning -- This program may not be used in any manner that
 competes with the business of Gaussian, Inc. or will provide
 assistance to any competitor of Gaussian, Inc.  The licensee
 of this program is prohibited from giving any competitor of
 Gaussian, Inc. access to this program.  By using this program,
 the user acknowledges that Gaussian, Inc. is engaged in the
 business of creating and licensing software in the field of
 computational chemistry and represents and warrants to the
 licensee that it is not a competitor of Gaussian, Inc. and that
 it will not use this program in any manner prohibited above.
 ---------------------------------------------------------------
  

 Cite this work as:
 Gaussian 09, Revision D.01,
 M. J. Frisch, G. W. Trucks, H. B. Schlegel, G. E. Scuseria, 
 M. A. Robb, J. R. Cheeseman, G. Scalmani, V. Barone, B. Mennucci, 
 G. A. Petersson, H. Nakatsuji, M. Caricato, X. Li, H. P. Hratchian, 
 A. F. Izmaylov, J. Bloino, G. Zheng, J. L. Sonnenberg, M. Hada, 
 M. Ehara, K. Toyota, R. Fukuda, J. Hasegawa, M. Ishida, T. Nakajima, 
 Y. Honda, O. Kitao, H. Nakai, T. Vreven, J. A. Montgomery, Jr., 
 J. E. Peralta, F. Ogliaro, M. Bearpark, J. J. Heyd, E. Brothers, 
 K. N. Kudin, V. N. Staroverov, T. Keith, R. Kobayashi, J. Normand, 
 K. Raghavachari, A. Rendell, J. C. Burant, S. S. Iyengar, J. Tomasi, 
 M. Cossi, N. Rega, J. M. Millam, M. Klene, J. E. Knox, J. B. Cross, 
 V. Bakken, C. Adamo, J. Jaramillo, R. Gomperts, R. E. Stratmann, 
 O. Yazyev, A. J. Austin, R. Cammi, C. Pomelli, J. W. Ochterski, 
 R. L. Martin, K. Morokuma, V. G. Zakrzewski, G. A. Voth, 
 P. Salvador, J. J. Dannenberg, S. Dapprich, A. D. Daniels, 
 O. Farkas, J. B. Foresman, J. V. Ortiz, J. Cioslowski, 
 and D. J. Fox, Gaussian, Inc., Wallingford CT, 2013.
 
 ******************************************
 Gaussian 09:  ES64L-G09RevD.01 24-Apr-2013
                15-Sep-2025 
 ******************************************
 -------------------------------------------------------------------
 #p external='/home/rxn_grp/programs/xtb-gaussian' /sdd opt(nomicro)
 -------------------------------------------------------------------
 1/14=-1,18=20,19=15,26=1,38=1/1,3;
 2/9=110,12=2,17=6,18=5,40=1/2;
 3/5=17,6=7,11=9,16=1,25=1,30=1,41=9900000,43=2,71=1/1;
 4/20=17,22=1,24=3,113=1,114=1/2;
 6/7=2,8=2,9=2,10=2/1;
 7/44=-1/16;
 1/14=-1,18=20,19=15,26=1/3(2);
 2/9=110/2;
 99//99;
 2/9=110/2;
 3/5=17,6=7,11=9,16=1,25=1,30=1,41=9900000,43=2,71=1/1;
 4/16=2,20=17,22=1,24=3,113=1,114=1/2;
 7/44=-1/16;
 1/14=-1,18=20,19=15,26=1/3(-4);
 2/9=110/2;
 6/7=2,8=2,9=2,10=2/1;
 99//99;
 Leave Link    1 at Mon Sep 15 12:53:23 2025, MaxMem=           0 cpu:         0.0
 (Enter /appl/g09.shchoi/G09Files/g09/l101.exe)
 -
 R
 -
 Symbolic Z-matrix:
 Charge =  0 Multiplicity = 1
 Zr                    0.        0.        0. 
 Cl                    0.        0.       -1.939 
 Cl                    1.939     0.        0. 
 N                     0.1634    0.0238    1.71407 
 C                    -0.67328   0.52883   2.74051 
 C                    -1.94088   1.1029    2.16003 
 C                    -1.50954   1.48683   0.80395 
 C                    -1.82065   1.22619  -0.47077 
 C                    -0.86664   1.92411  -1.30976 
 C                     0.0446    2.56335  -0.56322 
 C                    -0.31515   2.3178    0.77899 
 C                    -0.42      0.5003    4.10621 
 C                     0.73768  -0.1362    4.53423 
 C                     1.51948  -0.81661   3.60486 
 C                     1.14124  -0.76946   2.26276 
 C                     1.38034  -1.92833   1.35593 
 C                     0.09838  -2.10675   0.60884 
 C                    -1.26849  -1.87796   1.09314 
 C                    -2.02012  -1.65809   0.01078 
 C                    -1.19277  -1.85172  -1.16355 
 C                     0.07255  -2.12228  -0.81565 
 H                    -2.27714   1.97533   2.73106 
 H                    -2.7435    0.36051   2.1519 
 H                    -2.65634   0.66977  -0.85062 
 H                    -0.9042    1.91837  -2.38852 
 H                     0.86611   3.17131  -0.90621 
 H                     0.15137   2.80441   1.62288 
 H                    -1.10587   0.95107   4.81427 
 H                     0.97365  -0.18796   5.59322 
 H                     2.3151   -1.47393   3.93843 
 H                     1.61062  -2.83935   1.91872 
 H                     2.22177  -1.70618   0.69149 
 H                    -1.59489  -1.93028   2.11888 
 H                    -3.08908  -1.50276  -0.0058 
 H                    -1.56966  -1.7881   -2.17351 
 H                     0.90279  -2.29915  -1.4749 
 
 NAtoms=     36 NQM=       36 NQMF=       0 NMMI=      0 NMMIF=      0
                NMic=       0 NMicF=      0.
                    Isotopes and Nuclear Properties:
 (Nuclear quadrupole moments (NQMom) in fm**2, nuclear magnetic moments (NMagM)
  in nuclear magnetons)

  Atom         1           2           3           4           5           6           7           8           9          10
 IAtWgt=          90          35          35          14          12          12          12          12          12          12
 AtmWgt=  89.9043000  34.9688527  34.9688527  14.0030740  12.0000000  12.0000000  12.0000000  12.0000000  12.0000000  12.0000000
 NucSpn=           0           3           3           2           0           0           0           0           0           0
 AtZEff=   0.0000000   0.0000000   0.0000000   0.0000000   0.0000000   0.0000000   0.0000000   0.0000000   0.0000000   0.0000000
 NQMom=    0.0000000  -8.1650000  -8.1650000   2.0440000   0.0000000   0.0000000   0.0000000   0.0000000   0.0000000   0.0000000
 NMagM=    0.0000000   0.8218740   0.8218740   0.4037610   0.0000000   0.0000000   0.0000000   0.0000000   0.0000000   0.0000000
 AtZNuc=  40.0000000  17.0000000  17.0000000   7.0000000   6.0000000   6.0000000   6.0000000   6.0000000   6.0000000   6.0000000

  Atom        11          12          13          14          15          16          17          18          19          20
 IAtWgt=          12          12          12          12          12          12          12          12          12          12
 AtmWgt=  12.0000000  12.0000000  12.0000000  12.0000000  12.0000000  12.0000000  12.0000000  12.0000000  12.0000000  12.0000000
 NucSpn=           0           0           0           0           0           0           0           0           0           0
 AtZEff=   0.0000000   0.0000000   0.0000000   0.0000000   0.0000000   0.0000000   0.0000000   0.0000000   0.0000000   0.0000000
 NQMom=    0.0000000   0.0000000   0.0000000   0.0000000   0.0000000   0.0000000   0.0000000   0.0000000   0.0000000   0.0000000
 NMagM=    0.0000000   0.0000000   0.0000000   0.0000000   0.0000000   0.0000000   0.0000000   0.0000000   0.0000000   0.0000000
 AtZNuc=   6.0000000   6.0000000   6.0000000   6.0000000   6.0000000   6.0000000   6.0000000   6.0000000   6.0000000   6.0000000

  Atom        21          22          23          24          25          26          27          28          29          30
 IAtWgt=          12           1           1           1           1           1           1           1           1           1
 AtmWgt=  12.0000000   1.0078250   1.0078250   1.0078250   1.0078250   1.0078250   1.0078250   1.0078250   1.0078250   1.0078250
 NucSpn=           0           1           1           1           1           1           1           1           1           1
 AtZEff=   0.0000000   0.0000000   0.0000000   0.0000000   0.0000000   0.0000000   0.0000000   0.0000000   0.0000000   0.0000000
 NQMom=    0.0000000   0.0000000   0.0000000   0.0000000   0.0000000   0.0000000   0.0000000   0.0000000   0.0000000   0.0000000
 NMagM=    0.0000000   2.7928460   2.7928460   2.7928460   2.7928460   2.7928460   2.7928460   2.7928460   2.7928460   2.7928460
 AtZNuc=   6.0000000   1.0000000   1.0000000   1.0000000   1.0000000   1.0000000   1.0000000   1.0000000   1.0000000   1.0000000

  Atom        31          32          33          34          35          36
 IAtWgt=           1           1           1           1           1           1
 AtmWgt=   1.0078250   1.0078250   1.0078250   1.0078250   1.0078250   1.0078250
 NucSpn=           1           1           1           1           1           1
 AtZEff=   0.0000000   0.0000000   0.0000000   0.0000000   0.0000000   0.0000000
 NQMom=    0.0000000   0.0000000   0.0000000   0.0000000   0.0000000   0.0000000
 NMagM=    2.7928460   2.7928460   2.7928460   2.7928460   2.7928460   2.7928460
 AtZNuc=   1.0000000   1.0000000   1.0000000   1.0000000   1.0000000   1.0000000
 Leave Link  101 at Mon Sep 15 12:53:24 2025, MaxMem=    33554432 cpu:         0.0
 (Enter /appl/g09.shchoi/G09Files/g09/l103.exe)

 GradGradGradGradGradGradGradGradGradGradGradGradGradGradGradGradGradGrad
 Berny optimization.
 Initialization pass.
                           ----------------------------
                           !    Initial Parameters    !
                           ! (Angstroms and Degrees)  !
 --------------------------                            --------------------------
 ! Name  Definition              Value          Derivative Info.                !
 --------------------------------------------------------------------------------
 ! R1    R(1,2)                  1.939          estimate D2E/DX2                !
 ! R2    R(1,3)                  1.939          estimate D2E/DX2                !
 ! R3    R(1,4)                  1.722          estimate D2E/DX2                !
 ! R4    R(1,7)                  2.2662         estimate D2E/DX2                !
 ! R5    R(1,8)                  2.245          estimate D2E/DX2                !
 ! R6    R(1,9)                  2.4837         estimate D2E/DX2                !
 ! R7    R(1,10)                 2.6249         estimate D2E/DX2                !
 ! R8    R(1,11)                 2.4654         estimate D2E/DX2                !
 ! R9    R(1,15)                 2.6485         estimate D2E/DX2                !
 ! R10   R(1,17)                 2.1952         estimate D2E/DX2                !
 ! R11   R(1,18)                 2.5161         estimate D2E/DX2                !
 ! R12   R(1,19)                 2.6135         estimate D2E/DX2                !
 ! R13   R(1,20)                 2.4911         estimate D2E/DX2                !
 ! R14   R(1,21)                 2.2748         estimate D2E/DX2                !
 ! R15   R(4,5)                  1.4173         estimate D2E/DX2                !
 ! R16   R(4,15)                 1.3735         estimate D2E/DX2                !
 ! R17   R(5,6)                  1.5078         estimate D2E/DX2                !
 ! R18   R(5,12)                 1.3893         estimate D2E/DX2                !
 ! R19   R(6,7)                  1.4739         estimate D2E/DX2                !
 ! R20   R(6,22)                 1.0956         estimate D2E/DX2                !
 ! R21   R(6,23)                 1.0933         estimate D2E/DX2                !
 ! R22   R(7,8)                  1.3378         estimate D2E/DX2                !
 ! R23   R(7,11)                 1.4552         estimate D2E/DX2                !
 ! R24   R(8,9)                  1.4495         estimate D2E/DX2                !
 ! R25   R(8,24)                 1.0734         estimate D2E/DX2                !
 ! R26   R(9,10)                 1.3403         estimate D2E/DX2                !
 ! R27   R(9,25)                 1.0794         estimate D2E/DX2                !
 ! R28   R(10,11)                1.4111         estimate D2E/DX2                !
 ! R29   R(10,26)                1.078          estimate D2E/DX2                !
 ! R30   R(11,27)                1.0801         estimate D2E/DX2                !
 ! R31   R(12,13)                1.3887         estimate D2E/DX2                !
 ! R32   R(12,28)                1.084          estimate D2E/DX2                !
 ! R33   R(13,14)                1.3921         estimate D2E/DX2                !
 ! R34   R(13,29)                1.0862         estimate D2E/DX2                !
 ! R35   R(14,15)                1.3952         estimate D2E/DX2                !
 ! R36   R(14,30)                1.0846         estimate D2E/DX2                !
 ! R37   R(15,16)                1.4908         estimate D2E/DX2                !
 ! R38   R(16,17)                1.4945         estimate D2E/DX2                !
 ! R39   R(16,31)                1.0953         estimate D2E/DX2                !
 ! R40   R(16,32)                1.0949         estimate D2E/DX2                !
 ! R41   R(17,18)                1.4681         estimate D2E/DX2                !
 ! R42   R(17,21)                1.4248         estimate D2E/DX2                !
 ! R43   R(18,19)                1.336          estimate D2E/DX2                !
 ! R44   R(18,33)                1.0777         estimate D2E/DX2                !
 ! R45   R(19,20)                1.4495         estimate D2E/DX2                !
 ! R46   R(19,34)                1.0803         estimate D2E/DX2                !
 ! R47   R(20,21)                1.3399         estimate D2E/DX2                !
 ! R48   R(20,35)                1.0799         estimate D2E/DX2                !
 ! R49   R(21,36)                1.0748         estimate D2E/DX2                !
 ! A1    A(2,1,3)               90.0            estimate D2E/DX2                !
 ! A2    A(2,1,7)              110.7785         estimate D2E/DX2                !
 ! A3    A(2,1,8)               77.8952         estimate D2E/DX2                !
 ! A4    A(2,1,9)               58.1739         estimate D2E/DX2                !
 ! A5    A(2,1,10)              77.6096         estimate D2E/DX2                !
 ! A6    A(2,1,11)             108.4192         estimate D2E/DX2                !
 ! A7    A(2,1,15)             148.6884         estimate D2E/DX2                !
 ! A8    A(2,1,17)             106.1025         estimate D2E/DX2                !
 ! A9    A(2,1,18)             115.7509         estimate D2E/DX2                !
 ! A10   A(2,1,19)              90.2362         estimate D2E/DX2                !
 ! A11   A(2,1,20)              62.1545         estimate D2E/DX2                !
 ! A12   A(2,1,21)              68.9881         estimate D2E/DX2                !
 ! A13   A(3,1,4)               84.5552         estimate D2E/DX2                !
 ! A14   A(3,1,7)              131.7674         estimate D2E/DX2                !
 ! A15   A(3,1,8)              144.1925         estimate D2E/DX2                !
 ! A16   A(3,1,9)              110.4219         estimate D2E/DX2                !
 ! A17   A(3,1,10)              89.0265         estimate D2E/DX2                !
 ! A18   A(3,1,11)              97.3442         estimate D2E/DX2                !
 ! A19   A(3,1,15)              64.4754         estimate D2E/DX2                !
 ! A20   A(3,1,17)              87.4312         estimate D2E/DX2                !
 ! A21   A(3,1,18)             120.2749         estimate D2E/DX2                !
 ! A22   A(3,1,19)             140.6206         estimate D2E/DX2                !
 ! A23   A(3,1,20)             118.6084         estimate D2E/DX2                !
 ! A24   A(3,1,21)              88.1723         estimate D2E/DX2                !
 ! A25   A(4,1,7)               72.6034         estimate D2E/DX2                !
 ! A26   A(4,1,8)              106.1491         estimate D2E/DX2                !
 ! A27   A(4,1,9)              123.183          estimate D2E/DX2                !
 ! A28   A(4,1,10)             101.4476         estimate D2E/DX2                !
 ! A29   A(4,1,11)              71.6165         estimate D2E/DX2                !
 ! A30   A(4,1,17)              74.5103         estimate D2E/DX2                !
 ! A31   A(4,1,18)              68.0187         estimate D2E/DX2                !
 ! A32   A(4,1,19)              94.4741         estimate D2E/DX2                !
 ! A33   A(4,1,20)             121.3755         estimate D2E/DX2                !
 ! A34   A(4,1,21)             111.5171         estimate D2E/DX2                !
 ! A35   A(7,1,9)               56.3847         estimate D2E/DX2                !
 ! A36   A(7,1,10)              56.4084         estimate D2E/DX2                !
 ! A37   A(7,1,15)             100.0524         estimate D2E/DX2                !
 ! A38   A(7,1,17)             124.1332         estimate D2E/DX2                !
 ! A39   A(7,1,18)              89.9852         estimate D2E/DX2                !
 ! A40   A(7,1,19)              84.2554         estimate D2E/DX2                !
 ! A41   A(7,1,20)             109.5393         estimate D2E/DX2                !
 ! A42   A(7,1,21)             139.5125         estimate D2E/DX2                !
 ! A43   A(8,1,10)              55.625          estimate D2E/DX2                !
 ! A44   A(8,1,11)              56.5716         estimate D2E/DX2                !
 ! A45   A(8,1,15)             133.4164         estimate D2E/DX2                !
 ! A46   A(8,1,17)             128.2213         estimate D2E/DX2                !
 ! A47   A(8,1,18)              95.1586         estimate D2E/DX2                !
 ! A48   A(8,1,19)              73.7713         estimate D2E/DX2                !
 ! A49   A(8,1,20)              85.3966         estimate D2E/DX2                !
 ! A50   A(8,1,21)             117.4032         estimate D2E/DX2                !
 ! A51   A(9,1,11)              52.6783         estimate D2E/DX2                !
 ! A52   A(9,1,15)             145.6862         estimate D2E/DX2                !
 ! A53   A(9,1,17)             154.8764         estimate D2E/DX2                !
 ! A54   A(9,1,18)             129.1544         estimate D2E/DX2                !
 ! A55   A(9,1,19)             102.9419         estimate D2E/DX2                !
 ! A56   A(9,1,20)              99.3506         estimate D2E/DX2                !
 ! A57   A(9,1,21)             123.0114         estimate D2E/DX2                !
 ! A58   A(10,1,15)            117.3688         estimate D2E/DX2                !
 ! A59   A(10,1,18)            146.1676         estimate D2E/DX2                !
 ! A60   A(10,1,19)            129.3151         estimate D2E/DX2                !
 ! A61   A(10,1,20)            129.3334         estimate D2E/DX2                !
 ! A62   A(10,1,21)            146.4718         estimate D2E/DX2                !
 ! A63   A(11,1,15)             93.3402         estimate D2E/DX2                !
 ! A64   A(11,1,17)            145.1195         estimate D2E/DX2                !
 ! A65   A(11,1,18)            119.9976         estimate D2E/DX2                !
 ! A66   A(11,1,19)            119.758          estimate D2E/DX2                !
 ! A67   A(11,1,20)            141.74           estimate D2E/DX2                !
 ! A68   A(15,1,17)             57.6495         estimate D2E/DX2                !
 ! A69   A(15,1,18)             68.2359         estimate D2E/DX2                !
 ! A70   A(15,1,19)             98.3503         estimate D2E/DX2                !
 ! A71   A(15,1,20)            112.9184         estimate D2E/DX2                !
 ! A72   A(15,1,21)             91.2346         estimate D2E/DX2                !
 ! A73   A(17,1,19)             54.8734         estimate D2E/DX2                !
 ! A74   A(17,1,20)             55.7786         estimate D2E/DX2                !
 ! A75   A(18,1,20)             53.6098         estimate D2E/DX2                !
 ! A76   A(18,1,21)             58.3667         estimate D2E/DX2                !
 ! A77   A(19,1,21)             55.5438         estimate D2E/DX2                !
 ! A78   A(1,4,5)              132.0523         estimate D2E/DX2                !
 ! A79   A(5,4,15)             109.68           estimate D2E/DX2                !
 ! A80   A(4,5,6)              110.6807         estimate D2E/DX2                !
 ! A81   A(4,5,12)             126.6555         estimate D2E/DX2                !
 ! A82   A(6,5,12)             122.653          estimate D2E/DX2                !
 ! A83   A(5,6,7)              101.9673         estimate D2E/DX2                !
 ! A84   A(5,6,22)             111.1349         estimate D2E/DX2                !
 ! A85   A(5,6,23)             111.1922         estimate D2E/DX2                !
 ! A86   A(7,6,22)             111.2201         estimate D2E/DX2                !
 ! A87   A(7,6,23)             112.6352         estimate D2E/DX2                !
 ! A88   A(22,6,23)            108.619          estimate D2E/DX2                !
 ! A89   A(1,7,6)              110.5141         estimate D2E/DX2                !
 ! A90   A(6,7,8)              139.2783         estimate D2E/DX2                !
 ! A91   A(6,7,11)             113.8734         estimate D2E/DX2                !
 ! A92   A(8,7,11)             106.6053         estimate D2E/DX2                !
 ! A93   A(1,8,24)             114.9899         estimate D2E/DX2                !
 ! A94   A(7,8,9)              107.7375         estimate D2E/DX2                !
 ! A95   A(7,8,24)             128.2594         estimate D2E/DX2                !
 ! A96   A(9,8,24)             123.8588         estimate D2E/DX2                !
 ! A97   A(1,9,25)             122.3465         estimate D2E/DX2                !
 ! A98   A(8,9,10)             110.7765         estimate D2E/DX2                !
 ! A99   A(8,9,25)             123.5715         estimate D2E/DX2                !
 ! A100  A(10,9,25)            125.6519         estimate D2E/DX2                !
 ! A101  A(1,10,26)            129.1945         estimate D2E/DX2                !
 ! A102  A(9,10,11)            105.8716         estimate D2E/DX2                !
 ! A103  A(9,10,26)            127.5804         estimate D2E/DX2                !
 ! A104  A(11,10,26)           126.5158         estimate D2E/DX2                !
 ! A105  A(1,11,27)            127.9672         estimate D2E/DX2                !
 ! A106  A(7,11,10)            108.9609         estimate D2E/DX2                !
 ! A107  A(7,11,27)            126.7535         estimate D2E/DX2                !
 ! A108  A(10,11,27)           123.6866         estimate D2E/DX2                !
 ! A109  A(5,12,13)            117.6693         estimate D2E/DX2                !
 ! A110  A(5,12,28)            121.2143         estimate D2E/DX2                !
 ! A111  A(13,12,28)           121.1142         estimate D2E/DX2                !
 ! A112  A(12,13,14)           119.106          estimate D2E/DX2                !
 ! A113  A(12,13,29)           120.2273         estimate D2E/DX2                !
 ! A114  A(14,13,29)           120.3706         estimate D2E/DX2                !
 ! A115  A(13,14,15)           118.2577         estimate D2E/DX2                !
 ! A116  A(13,14,30)           120.1897         estimate D2E/DX2                !
 ! A117  A(15,14,30)           121.0116         estimate D2E/DX2                !
 ! A118  A(1,15,14)            161.5298         estimate D2E/DX2                !
 ! A119  A(1,15,16)             77.0126         estimate D2E/DX2                !
 ! A120  A(4,15,14)            126.6422         estimate D2E/DX2                !
 ! A121  A(4,15,16)            108.6714         estimate D2E/DX2                !
 ! A122  A(14,15,16)           121.0233         estimate D2E/DX2                !
 ! A123  A(15,16,17)           105.0291         estimate D2E/DX2                !
 ! A124  A(15,16,31)           111.5756         estimate D2E/DX2                !
 ! A125  A(15,16,32)           109.5527         estimate D2E/DX2                !
 ! A126  A(17,16,31)           109.7492         estimate D2E/DX2                !
 ! A127  A(17,16,32)           112.3379         estimate D2E/DX2                !
 ! A128  A(31,16,32)           108.6023         estimate D2E/DX2                !
 ! A129  A(1,17,16)             93.5846         estimate D2E/DX2                !
 ! A130  A(16,17,18)           127.9636         estimate D2E/DX2                !
 ! A131  A(16,17,21)           121.1079         estimate D2E/DX2                !
 ! A132  A(18,17,21)           108.3386         estimate D2E/DX2                !
 ! A133  A(1,18,33)            127.0451         estimate D2E/DX2                !
 ! A134  A(17,18,19)           106.3921         estimate D2E/DX2                !
 ! A135  A(17,18,33)           126.0443         estimate D2E/DX2                !
 ! A136  A(19,18,33)           127.4965         estimate D2E/DX2                !
 ! A137  A(1,19,34)            132.3417         estimate D2E/DX2                !
 ! A138  A(18,19,20)           108.2559         estimate D2E/DX2                !
 ! A139  A(18,19,34)           126.3555         estimate D2E/DX2                !
 ! A140  A(20,19,34)           124.859          estimate D2E/DX2                !
 ! A141  A(1,20,35)            124.0674         estimate D2E/DX2                !
 ! A142  A(19,20,21)           110.8324         estimate D2E/DX2                !
 ! A143  A(19,20,35)           123.4108         estimate D2E/DX2                !
 ! A144  A(21,20,35)           125.7556         estimate D2E/DX2                !
 ! A145  A(1,21,36)            113.4591         estimate D2E/DX2                !
 ! A146  A(17,21,20)           105.933          estimate D2E/DX2                !
 ! A147  A(17,21,36)           126.9433         estimate D2E/DX2                !
 ! A148  A(20,21,36)           127.1169         estimate D2E/DX2                !
 ! A149  L(2,1,4,3,-1)         174.5552         estimate D2E/DX2                !
 ! A150  L(10,1,17,2,-1)       183.7121         estimate D2E/DX2                !
 ! A151  L(11,1,21,2,-1)       177.4073         estimate D2E/DX2                !
 ! A152  L(2,1,4,3,-2)         179.2045         estimate D2E/DX2                !
 ! A153  L(10,1,17,2,-2)       176.3295         estimate D2E/DX2                !
 ! A154  L(11,1,21,2,-2)       185.7852         estimate D2E/DX2                !
 ! D1    D(3,1,4,5)            152.205          estimate D2E/DX2                !
 ! D2    D(7,1,4,5)             15.2291         estimate D2E/DX2                !
 ! D3    D(8,1,4,5)              7.0673         estimate D2E/DX2                !
 ! D4    D(9,1,4,5)             41.3211         estimate D2E/DX2                !
 ! D5    D(10,1,4,5)            64.3091         estimate D2E/DX2                !
 ! D6    D(11,1,4,5)            52.592          estimate D2E/DX2                !
 ! D7    D(17,1,4,5)          -118.9584         estimate D2E/DX2                !
 ! D8    D(18,1,4,5)           -82.0196         estimate D2E/DX2                !
 ! D9    D(19,1,4,5)           -67.317          estimate D2E/DX2                !
 ! D10   D(20,1,4,5)           -87.4475         estimate D2E/DX2                !
 ! D11   D(21,1,4,5)          -121.9249         estimate D2E/DX2                !
 ! D12   D(2,1,7,6)            155.3288         estimate D2E/DX2                !
 ! D13   D(3,1,7,6)            -94.8634         estimate D2E/DX2                !
 ! D14   D(4,1,7,6)            -29.2653         estimate D2E/DX2                !
 ! D15   D(9,1,7,6)            176.9668         estimate D2E/DX2                !
 ! D16   D(10,1,7,6)          -146.5094         estimate D2E/DX2                !
 ! D17   D(15,1,7,6)           -30.2305         estimate D2E/DX2                !
 ! D18   D(17,1,7,6)            27.3328         estimate D2E/DX2                !
 ! D19   D(18,1,7,6)            37.6455         estimate D2E/DX2                !
 ! D20   D(19,1,7,6)            67.2623         estimate D2E/DX2                !
 ! D21   D(20,1,7,6)            88.6229         estimate D2E/DX2                !
 ! D22   D(21,1,7,6)            73.7357         estimate D2E/DX2                !
 ! D23   D(2,1,8,24)            72.5828         estimate D2E/DX2                !
 ! D24   D(3,1,8,24)           145.288          estimate D2E/DX2                !
 ! D25   D(4,1,8,24)          -111.2657         estimate D2E/DX2                !
 ! D26   D(10,1,8,24)          155.7385         estimate D2E/DX2                !
 ! D27   D(11,1,8,24)         -165.4945         estimate D2E/DX2                !
 ! D28   D(15,1,8,24)         -107.3963         estimate D2E/DX2                !
 ! D29   D(17,1,8,24)          -28.4964         estimate D2E/DX2                !
 ! D30   D(18,1,8,24)          -42.6808         estimate D2E/DX2                !
 ! D31   D(19,1,8,24)          -21.2484         estimate D2E/DX2                !
 ! D32   D(20,1,8,24)           10.0982         estimate D2E/DX2                !
 ! D33   D(21,1,8,24)           14.2007         estimate D2E/DX2                !
 ! D34   D(2,1,9,25)             2.3005         estimate D2E/DX2                !
 ! D35   D(3,1,9,25)            78.9391         estimate D2E/DX2                !
 ! D36   D(4,1,9,25)           175.9761         estimate D2E/DX2                !
 ! D37   D(7,1,9,25)          -153.7606         estimate D2E/DX2                !
 ! D38   D(11,1,9,25)          162.4889         estimate D2E/DX2                !
 ! D39   D(15,1,9,25)          153.2686         estimate D2E/DX2                !
 ! D40   D(17,1,9,25)          -54.0103         estimate D2E/DX2                !
 ! D41   D(18,1,9,25)          -96.5604         estimate D2E/DX2                !
 ! D42   D(19,1,9,25)          -79.7878         estimate D2E/DX2                !
 ! D43   D(20,1,9,25)          -46.4497         estimate D2E/DX2                !
 ! D44   D(21,1,9,25)          -22.6748         estimate D2E/DX2                !
 ! D45   D(2,1,10,26)          -76.0434         estimate D2E/DX2                !
 ! D46   D(3,1,10,26)           14.1705         estimate D2E/DX2                !
 ! D47   D(4,1,10,26)           98.4159         estimate D2E/DX2                !
 ! D48   D(7,1,10,26)          158.369          estimate D2E/DX2                !
 ! D49   D(8,1,10,26)         -159.7368         estimate D2E/DX2                !
 ! D50   D(15,1,10,26)          74.5616         estimate D2E/DX2                !
 ! D51   D(18,1,10,26)         165.8463         estimate D2E/DX2                !
 ! D52   D(19,1,10,26)        -155.9966         estimate D2E/DX2                !
 ! D53   D(20,1,10,26)        -113.0741         estimate D2E/DX2                !
 ! D54   D(21,1,10,26)         -71.0458         estimate D2E/DX2                !
 ! D55   D(26,10,17,16)         43.4897         estimate D2E/DX2                !
 ! D56   D(2,1,11,27)         -141.6922         estimate D2E/DX2                !
 ! D57   D(3,1,11,27)          -49.2322         estimate D2E/DX2                !
 ! D58   D(4,1,11,27)           32.5087         estimate D2E/DX2                !
 ! D59   D(8,1,11,27)          157.2982         estimate D2E/DX2                !
 ! D60   D(9,1,11,27)         -159.3614         estimate D2E/DX2                !
 ! D61   D(15,1,11,27)          15.4474         estimate D2E/DX2                !
 ! D62   D(17,1,11,27)          46.845          estimate D2E/DX2                !
 ! D63   D(18,1,11,27)          82.1707         estimate D2E/DX2                !
 ! D64   D(19,1,11,27)         117.0392         estimate D2E/DX2                !
 ! D65   D(20,1,11,27)         150.1926         estimate D2E/DX2                !
 ! D66   D(27,11,21,36)        -85.3123         estimate D2E/DX2                !
 ! D67   D(2,1,15,14)          157.0496         estimate D2E/DX2                !
 ! D68   D(2,1,15,16)          -34.711          estimate D2E/DX2                !
 ! D69   D(3,1,15,14)          118.77           estimate D2E/DX2                !
 ! D70   D(3,1,15,16)          -72.9906         estimate D2E/DX2                !
 ! D71   D(7,1,15,14)          -12.9133         estimate D2E/DX2                !
 ! D72   D(7,1,15,16)          155.3261         estimate D2E/DX2                !
 ! D73   D(8,1,15,14)          -22.9898         estimate D2E/DX2                !
 ! D74   D(8,1,15,16)          145.2496         estimate D2E/DX2                !
 ! D75   D(9,1,15,14)           29.5557         estimate D2E/DX2                !
 ! D76   D(9,1,15,16)         -162.2049         estimate D2E/DX2                !
 ! D77   D(10,1,15,14)          44.3382         estimate D2E/DX2                !
 ! D78   D(10,1,15,16)        -147.4224         estimate D2E/DX2                !
 ! D79   D(11,1,15,14)          22.2225         estimate D2E/DX2                !
 ! D80   D(11,1,15,16)        -169.5381         estimate D2E/DX2                !
 ! D81   D(17,1,15,14)        -137.1271         estimate D2E/DX2                !
 ! D82   D(17,1,15,16)          31.1123         estimate D2E/DX2                !
 ! D83   D(18,1,15,14)         -98.8386         estimate D2E/DX2                !
 ! D84   D(18,1,15,16)          69.4008         estimate D2E/DX2                !
 ! D85   D(19,1,15,14)         -98.5131         estimate D2E/DX2                !
 ! D86   D(19,1,15,16)          69.7263         estimate D2E/DX2                !
 ! D87   D(20,1,15,14)        -129.2553         estimate D2E/DX2                !
 ! D88   D(20,1,15,16)          38.9841         estimate D2E/DX2                !
 ! D89   D(21,1,15,14)        -153.846          estimate D2E/DX2                !
 ! D90   D(21,1,15,16)          14.3935         estimate D2E/DX2                !
 ! D91   D(2,1,17,16)          120.2158         estimate D2E/DX2                !
 ! D92   D(3,1,17,16)           30.9579         estimate D2E/DX2                !
 ! D93   D(4,1,17,16)          -54.1012         estimate D2E/DX2                !
 ! D94   D(7,1,17,16)         -109.8592         estimate D2E/DX2                !
 ! D95   D(8,1,17,16)         -152.6776         estimate D2E/DX2                !
 ! D96   D(9,1,17,16)          167.5931         estimate D2E/DX2                !
 ! D97   D(11,1,17,16)         -68.2141         estimate D2E/DX2                !
 ! D98   D(15,1,17,16)         -30.2154         estimate D2E/DX2                !
 ! D99   D(19,1,17,16)        -161.195          estimate D2E/DX2                !
 ! D100  D(20,1,17,16)         158.5598         estimate D2E/DX2                !
 ! D101  D(2,1,18,33)         -163.716          estimate D2E/DX2                !
 ! D102  D(3,1,18,33)           89.9291         estimate D2E/DX2                !
 ! D103  D(4,1,18,33)           20.6686         estimate D2E/DX2                !
 ! D104  D(7,1,18,33)          -50.5282         estimate D2E/DX2                !
 ! D105  D(8,1,18,33)          -84.6818         estimate D2E/DX2                !
 ! D106  D(9,1,18,33)          -94.9554         estimate D2E/DX2                !
 ! D107  D(10,1,18,33)         -56.7513         estimate D2E/DX2                !
 ! D108  D(11,1,18,33)         -30.596          estimate D2E/DX2                !
 ! D109  D(15,1,18,33)          50.3108         estimate D2E/DX2                !
 ! D110  D(20,1,18,33)        -165.0893         estimate D2E/DX2                !
 ! D111  D(21,1,18,33)         156.1646         estimate D2E/DX2                !
 ! D112  D(2,1,19,34)          -88.5951         estimate D2E/DX2                !
 ! D113  D(3,1,19,34)         -178.8829         estimate D2E/DX2                !
 ! D114  D(4,1,19,34)           94.2518         estimate D2E/DX2                !
 ! D115  D(7,1,19,34)           22.2679         estimate D2E/DX2                !
 ! D116  D(8,1,19,34)          -11.281          estimate D2E/DX2                !
 ! D117  D(9,1,19,34)          -31.2886         estimate D2E/DX2                !
 ! D118  D(10,1,19,34)         -14.4955         estimate D2E/DX2                !
 ! D119  D(11,1,19,34)          22.8939         estimate D2E/DX2                !
 ! D120  D(15,1,19,34)         121.6225         estimate D2E/DX2                !
 ! D121  D(17,1,19,34)         161.7583         estimate D2E/DX2                !
 ! D122  D(21,1,19,34)        -152.6388         estimate D2E/DX2                !
 ! D123  D(2,1,20,35)          -23.1233         estimate D2E/DX2                !
 ! D124  D(3,1,20,35)          -96.3782         estimate D2E/DX2                !
 ! D125  D(4,1,20,35)          161.7335         estimate D2E/DX2                !
 ! D126  D(7,1,20,35)           80.6604         estimate D2E/DX2                !
 ! D127  D(8,1,20,35)           55.6088         estimate D2E/DX2                !
 ! D128  D(9,1,20,35)           23.1344         estimate D2E/DX2                !
 ! D129  D(10,1,20,35)          18.5777         estimate D2E/DX2                !
 ! D130  D(11,1,20,35)          61.5536         estimate D2E/DX2                !
 ! D131  D(15,1,20,35)        -168.7829         estimate D2E/DX2                !
 ! D132  D(17,1,20,35)        -160.7394         estimate D2E/DX2                !
 ! D133  D(18,1,20,35)         155.4778         estimate D2E/DX2                !
 ! D134  D(2,1,21,36)           56.6618         estimate D2E/DX2                !
 ! D135  D(3,1,21,36)          -34.0405         estimate D2E/DX2                !
 ! D136  D(4,1,21,36)         -117.4583         estimate D2E/DX2                !
 ! D137  D(7,1,21,36)          154.4422         estimate D2E/DX2                !
 ! D138  D(8,1,21,36)          119.7795         estimate D2E/DX2                !
 ! D139  D(9,1,21,36)           79.2621         estimate D2E/DX2                !
 ! D140  D(10,1,21,36)          51.4322         estimate D2E/DX2                !
 ! D141  D(15,1,21,36)         -98.4519         estimate D2E/DX2                !
 ! D142  D(18,1,21,36)        -161.7809         estimate D2E/DX2                !
 ! D143  D(19,1,21,36)         162.2612         estimate D2E/DX2                !
 ! D144  D(1,4,5,6)              1.9575         estimate D2E/DX2                !
 ! D145  D(1,4,5,12)          -179.2209         estimate D2E/DX2                !
 ! D146  D(15,4,5,6)          -165.6169         estimate D2E/DX2                !
 ! D147  D(15,4,5,12)           13.2047         estimate D2E/DX2                !
 ! D148  D(5,4,15,14)          -16.1805         estimate D2E/DX2                !
 ! D149  D(5,4,15,16)          142.1546         estimate D2E/DX2                !
 ! D150  D(4,5,6,7)            -26.4378         estimate D2E/DX2                !
 ! D151  D(4,5,6,22)          -145.0326         estimate D2E/DX2                !
 ! D152  D(4,5,6,23)            93.8358         estimate D2E/DX2                !
 ! D153  D(12,5,6,7)           154.6851         estimate D2E/DX2                !
 ! D154  D(12,5,6,22)           36.0902         estimate D2E/DX2                !
 ! D155  D(12,5,6,23)          -85.0414         estimate D2E/DX2                !
 ! D156  D(4,5,12,13)           -3.0953         estimate D2E/DX2                !
 ! D157  D(4,5,12,28)          177.4386         estimate D2E/DX2                !
 ! D158  D(6,5,12,13)          175.5952         estimate D2E/DX2                !
 ! D159  D(6,5,12,28)           -3.8708         estimate D2E/DX2                !
 ! D160  D(5,6,7,1)             35.5021         estimate D2E/DX2                !
 ! D161  D(5,6,7,8)            121.2443         estimate D2E/DX2                !
 ! D162  D(5,6,7,11)           -52.0668         estimate D2E/DX2                !
 ! D163  D(22,6,7,1)           154.0363         estimate D2E/DX2                !
 ! D164  D(22,6,7,8)          -120.2215         estimate D2E/DX2                !
 ! D165  D(22,6,7,11)           66.4674         estimate D2E/DX2                !
 ! D166  D(23,6,7,1)           -83.7565         estimate D2E/DX2                !
 ! D167  D(23,6,7,8)             1.9857         estimate D2E/DX2                !
 ! D168  D(23,6,7,11)         -171.3254         estimate D2E/DX2                !
 ! D169  D(6,7,8,9)           -175.7446         estimate D2E/DX2                !
 ! D170  D(6,7,8,24)             8.5402         estimate D2E/DX2                !
 ! D171  D(11,7,8,9)            -2.1261         estimate D2E/DX2                !
 ! D172  D(11,7,8,24)         -177.8413         estimate D2E/DX2                !
 ! D173  D(6,7,11,10)          176.9066         estimate D2E/DX2                !
 ! D174  D(6,7,11,27)          -11.7682         estimate D2E/DX2                !
 ! D175  D(8,7,11,10)            1.4547         estimate D2E/DX2                !
 ! D176  D(8,7,11,27)          172.7799         estimate D2E/DX2                !
 ! D177  D(7,8,9,10)             2.2101         estimate D2E/DX2                !
 ! D178  D(7,8,9,25)          -177.6829         estimate D2E/DX2                !
 ! D179  D(24,8,9,10)          178.1589         estimate D2E/DX2                !
 ! D180  D(24,8,9,25)           -1.7341         estimate D2E/DX2                !
 ! D181  D(8,9,10,11)           -1.228          estimate D2E/DX2                !
 ! D182  D(8,9,10,26)         -179.2538         estimate D2E/DX2                !
 ! D183  D(25,9,10,11)         178.6623         estimate D2E/DX2                !
 ! D184  D(25,9,10,26)           0.6364         estimate D2E/DX2                !
 ! D185  D(9,10,11,7)           -0.0931         estimate D2E/DX2                !
 ! D186  D(9,10,11,27)        -171.7425         estimate D2E/DX2                !
 ! D187  D(26,10,11,7)         177.9602         estimate D2E/DX2                !
 ! D188  D(26,10,11,27)          6.3109         estimate D2E/DX2                !
 ! D189  D(5,12,13,14)          -5.8783         estimate D2E/DX2                !
 ! D190  D(5,12,13,29)        -179.6524         estimate D2E/DX2                !
 ! D191  D(28,12,13,14)        173.5883         estimate D2E/DX2                !
 ! D192  D(28,12,13,29)         -0.1858         estimate D2E/DX2                !
 ! D193  D(12,13,14,15)          3.3681         estimate D2E/DX2                !
 ! D194  D(12,13,14,30)       -168.2824         estimate D2E/DX2                !
 ! D195  D(29,13,14,15)        177.133          estimate D2E/DX2                !
 ! D196  D(29,13,14,30)          5.4825         estimate D2E/DX2                !
 ! D197  D(13,14,15,1)          19.7304         estimate D2E/DX2                !
 ! D198  D(13,14,15,4)           9.0439         estimate D2E/DX2                !
 ! D199  D(13,14,15,16)       -146.8689         estimate D2E/DX2                !
 ! D200  D(30,14,15,1)        -168.6908         estimate D2E/DX2                !
 ! D201  D(30,14,15,4)        -179.3772         estimate D2E/DX2                !
 ! D202  D(30,14,15,16)         24.71           estimate D2E/DX2                !
 ! D203  D(1,15,16,17)         -41.5979         estimate D2E/DX2                !
 ! D204  D(1,15,16,31)        -160.4404         estimate D2E/DX2                !
 ! D205  D(1,15,16,32)          79.2638         estimate D2E/DX2                !
 ! D206  D(4,15,16,17)         -25.697          estimate D2E/DX2                !
 ! D207  D(4,15,16,31)        -144.5395         estimate D2E/DX2                !
 ! D208  D(4,15,16,32)          95.1647         estimate D2E/DX2                !
 ! D209  D(14,15,16,17)        134.0807         estimate D2E/DX2                !
 ! D210  D(14,15,16,31)         15.2382         estimate D2E/DX2                !
 ! D211  D(14,15,16,32)       -105.0577         estimate D2E/DX2                !
 ! D212  D(15,16,17,1)          51.4482         estimate D2E/DX2                !
 ! D213  D(15,16,17,18)        -34.081          estimate D2E/DX2                !
 ! D214  D(15,16,17,21)        125.462          estimate D2E/DX2                !
 ! D215  D(31,16,17,1)         171.5105         estimate D2E/DX2                !
 ! D216  D(31,16,17,18)         85.9814         estimate D2E/DX2                !
 ! D217  D(31,16,17,21)       -114.4757         estimate D2E/DX2                !
 ! D218  D(32,16,17,1)         -67.5619         estimate D2E/DX2                !
 ! D219  D(32,16,17,18)       -153.0911         estimate D2E/DX2                !
 ! D220  D(32,16,17,21)          6.4519         estimate D2E/DX2                !
 ! D221  D(16,17,18,19)        156.6431         estimate D2E/DX2                !
 ! D222  D(16,17,18,33)        -26.1592         estimate D2E/DX2                !
 ! D223  D(21,17,18,19)         -4.9807         estimate D2E/DX2                !
 ! D224  D(21,17,18,33)        172.217          estimate D2E/DX2                !
 ! D225  D(16,17,21,20)       -160.0595         estimate D2E/DX2                !
 ! D226  D(16,17,21,36)         19.0381         estimate D2E/DX2                !
 ! D227  D(18,17,21,20)          3.0651         estimate D2E/DX2                !
 ! D228  D(18,17,21,36)       -177.8374         estimate D2E/DX2                !
 ! D229  D(17,18,19,20)          4.7607         estimate D2E/DX2                !
 ! D230  D(17,18,19,34)        176.6974         estimate D2E/DX2                !
 ! D231  D(33,18,19,20)       -172.3833         estimate D2E/DX2                !
 ! D232  D(33,18,19,34)         -0.4467         estimate D2E/DX2                !
 ! D233  D(18,19,20,21)         -3.0727         estimate D2E/DX2                !
 ! D234  D(18,19,20,35)        176.5452         estimate D2E/DX2                !
 ! D235  D(34,19,20,21)       -175.1597         estimate D2E/DX2                !
 ! D236  D(34,19,20,35)          4.4581         estimate D2E/DX2                !
 ! D237  D(19,20,21,17)         -0.1697         estimate D2E/DX2                !
 ! D238  D(19,20,21,36)       -179.2652         estimate D2E/DX2                !
 ! D239  D(35,20,21,17)       -179.7766         estimate D2E/DX2                !
 ! D240  D(35,20,21,36)          1.1279         estimate D2E/DX2                !
 --------------------------------------------------------------------------------
 Trust Radius=3.00D-01 FncErr=1.00D-07 GrdErr=1.00D-07
 Number of steps in this run=    216 maximum allowed number of steps=    216.
 GradGradGradGradGradGradGradGradGradGradGradGradGradGradGradGradGradGrad

 Leave Link  103 at Mon Sep 15 12:53:24 2025, MaxMem=    33554432 cpu:         0.0
 (Enter /appl/g09.shchoi/G09Files/g09/l202.exe)
                          Input orientation:                          
 ---------------------------------------------------------------------
 Center     Atomic      Atomic             Coordinates (Angstroms)
 Number     Number       Type             X           Y           Z
 ---------------------------------------------------------------------
      1         40           0        0.000000    0.000000    0.000000
      2         17           0        0.000000    0.000000   -1.939000
      3         17           0        1.939000    0.000000    0.000000
      4          7           0        0.163396    0.023801    1.714065
      5          6           0       -0.673279    0.528833    2.740506
      6          6           0       -1.940884    1.102904    2.160026
      7          6           0       -1.509542    1.486827    0.803953
      8          6           0       -1.820646    1.226187   -0.470774
      9          6           0       -0.866636    1.924109   -1.309758
     10          6           0        0.044596    2.563349   -0.563222
     11          6           0       -0.315155    2.317796    0.778992
     12          6           0       -0.420004    0.500299    4.106210
     13          6           0        0.737680   -0.136196    4.534227
     14          6           0        1.519478   -0.816614    3.604858
     15          6           0        1.141238   -0.769461    2.262758
     16          6           0        1.380341   -1.928328    1.355932
     17          6           0        0.098384   -2.106745    0.608842
     18          6           0       -1.268491   -1.877958    1.093141
     19          6           0       -2.020118   -1.658091    0.010776
     20          6           0       -1.192774   -1.851722   -1.163550
     21          6           0        0.072550   -2.122282   -0.815649
     22          1           0       -2.277143    1.975331    2.731064
     23          1           0       -2.743501    0.360509    2.151898
     24          1           0       -2.656342    0.669771   -0.850625
     25          1           0       -0.904197    1.918368   -2.388519
     26          1           0        0.866108    3.171311   -0.906215
     27          1           0        0.151367    2.804408    1.622878
     28          1           0       -1.105872    0.951066    4.814273
     29          1           0        0.973650   -0.187960    5.593220
     30          1           0        2.315095   -1.473928    3.938431
     31          1           0        1.610616   -2.839355    1.918723
     32          1           0        2.221767   -1.706181    0.691485
     33          1           0       -1.594891   -1.930280    2.118884
     34          1           0       -3.089076   -1.502757   -0.005802
     35          1           0       -1.569658   -1.788098   -2.173511
     36          1           0        0.902792   -2.299148   -1.474903
 ---------------------------------------------------------------------
                    Distance matrix (angstroms):
                    1          2          3          4          5
     1  Zr   0.000000
     2  Cl   1.939000   0.000000
     3  Cl   1.939000   2.742160   0.000000
     4  N    1.722000   3.656795   2.468067   0.000000
     5  C    2.871122   4.757178   3.822831   1.417273   0.000000
     6  C    3.106307   4.667488   4.575545   2.406520   1.507759
     7  C    2.266211   3.466001   3.840500   2.401556   2.316749
     8  C    2.244976   2.640828   3.982474   3.186797   3.480671
     9  C    2.483690   2.202089   3.645443   3.716939   4.288218
    10  C    2.624875   2.909555   3.236780   3.413130   3.945785
    11  C    2.465427   3.585943   3.325691   2.523051   2.678839
    12  C    4.157843   6.080400   4.761949   2.507939   1.389284
    13  C    4.595861   6.516547   4.692646   2.882484   2.377079
    14  C    3.996332   5.806034   3.719927   2.473935   2.713948
    15  C    2.648503   4.421455   2.519636   1.373500   2.281728
    16  C    2.731729   4.059602   2.422623   2.328095   3.488845
    17  C    2.195164   3.307500   2.863028   2.401036   3.476453
    18  C    2.516099   3.785456   3.874233   2.460190   2.976698
    19  C    2.613477   3.260639   4.292319   3.240014   3.748072
    20  C    2.491070   2.335146   3.819782   3.692892   4.602018
    21  C    2.274781   2.402345   2.941598   3.318641   4.497878
    22  H    4.067680   5.558490   5.397824   3.286181   2.159821
    23  H    3.505343   4.938847   5.165893   2.958905   2.158845
    24  H    2.868503   2.947763   4.721157   3.865984   4.104707
    25  H    3.194171   2.167896   4.179584   4.643310   5.318931
    26  H    3.410070   3.445867   3.468362   4.155296   4.759304
    27  H    3.243663   4.535923   3.700550   2.782128   2.665966
    28  H    5.030378   6.908992   5.775205   3.475938   2.160076
    29  H    5.680443   7.597214   5.679026   3.968526   3.371075
    30  H    4.800351   6.486627   4.221984   3.438140   3.791630
    31  H    3.786491   5.053518   3.442567   3.214653   4.151649
    32  H    2.885386   3.842753   1.862569   2.876699   4.192262
    33  H    3.280141   4.768237   4.550169   2.659677   2.698707
    34  H    3.435216   3.941818   5.247844   3.983327   4.183974
    35  H    3.222618   2.390840   4.498013   4.625981   5.506289
    36  H    2.876883   2.513265   2.921498   4.014015   5.315181
                    6          7          8          9         10
     6  C    0.000000
     7  C    1.473902   0.000000
     8  C    2.636431   1.337777   0.000000
     9  C    3.723948   2.252180   1.449525   0.000000
    10  C    3.673025   2.333113   2.296885   1.340257   0.000000
    11  C    2.454835   1.455230   2.240543   2.195905   1.411119
    12  C    2.542408   3.614586   4.841228   5.617777   5.125975
    13  C    3.787731   4.647489   5.783698   6.400847   5.809638
    14  C    4.212624   4.725026   5.651570   6.112164   5.565278
    15  C    3.607739   3.774332   4.497506   4.904053   4.505153
    16  C    4.567875   4.507704   4.851200   5.195775   5.063846
    17  C    4.106901   3.941733   3.994582   4.567283   4.815227
    18  C    3.236649   3.385781   3.519435   4.515653   4.918633
    19  C    3.499808   3.283341   2.930996   3.988294   4.734246
    20  C    4.509506   3.888099   3.216782   3.792709   4.624319
    21  C    4.828083   4.260492   3.862043   4.183239   4.692509
    22  H    1.095574   2.131104   3.319846   4.280233   4.072906
    23  H    1.093348   2.146672   2.911953   4.236806   4.471898
    24  H    3.124660   2.172638   1.073440   2.233207   3.311089
    25  H    4.735922   3.277887   2.235339   1.079430   2.155902
    26  H    4.643204   3.377258   3.345409   2.172731   1.078027
    27  H    2.749756   2.272725   3.280701   3.226703   2.201941
    28  H    2.786634   4.066037   5.340254   6.205465   5.730662
    29  H    4.684833   5.648737   6.824949   7.449737   6.806954
    30  H    5.283573   5.763582   6.620881   7.015237   6.459075
    31  H    5.311571   5.449215   5.831971   6.265018   6.148307
    32  H    5.232135   4.912292   5.127449   5.169353   4.954114
    33  H    3.053132   3.662369   4.089081   5.209823   5.484006
    34  H    3.577517   3.476815   3.045037   4.287535   5.163704
    35  H    5.222571   4.426515   3.471054   3.875666   4.912630
    36  H    5.733513   5.034496   4.566550   4.581926   5.021110
                   11         12         13         14         15
    11  C    0.000000
    12  C    3.792712   0.000000
    13  C    4.607855   1.388725   0.000000
    14  C    4.601730   2.397333   1.392086   0.000000
    15  C    3.722069   2.729117   2.392374   1.395178   0.000000
    16  C    4.608377   4.086992   3.704903   2.512555   1.490797
    17  C    4.447082   4.392833   4.438514   3.558097   2.368820
    18  C    4.314151   3.931236   4.347359   3.899736   2.898890
    19  C    4.393716   4.898122   5.512098   5.114123   3.981867
    20  C    4.682795   5.822331   6.255745   5.582605   4.284680
    21  C    4.733655   5.598681   5.745268   4.831071   3.528286
    22  H    2.788775   2.741479   4.098671   4.792995   4.408914
    23  H    3.407743   3.039328   4.247450   4.655073   4.047261
    24  H    3.294359   5.440601   6.416042   6.284754   5.117240
    25  H    3.246481   6.665347   7.405498   7.019607   5.748269
    26  H    2.227957   5.823468   6.368241   6.056419   5.064362
    27  H    1.080082   3.435450   4.179338   4.348766   3.763220
    28  H    4.333206   1.083956   2.158530   3.388191   3.810504
    29  H    5.578227   2.151086   1.086199   2.155625   3.384998
    30  H    5.592624   3.377349   2.152379   1.084592   2.163815
    31  H    5.621724   4.479040   3.861339   2.634926   2.150148
    32  H    4.757733   4.848489   4.408404   3.126064   2.124590
    33  H    4.634565   3.352244   3.807034   3.625971   2.975668
    34  H    4.786144   5.295736   6.092899   5.894610   4.855887
    35  H    5.210511   6.781840   7.283291   6.623903   5.297835
    36  H    5.280115   6.382438   6.388683   5.327493   4.045604
                   16         17         18         19         20
    16  C    0.000000
    17  C    1.494453   0.000000
    18  C    2.662313   1.468072   0.000000
    19  C    3.666824   2.246559   1.335965   0.000000
    20  C    3.602025   2.207601   2.258114   1.449494   0.000000
    21  C    2.542381   1.424810   2.345542   2.297327   1.339882
    22  H    5.523290   5.177866   4.306740   4.546184   5.566885
    23  H    4.783139   4.067515   2.882249   3.030253   4.276788
    24  H    5.283353   4.174638   3.492174   2.562368   2.932214
    25  H    5.834132   5.117702   5.163987   4.448927   3.974595
    26  H    5.602505   5.544607   5.835157   5.700377   5.434710
    27  H    4.896982   5.015028   4.921501   5.218058   5.590210
    28  H    5.141234   5.337236   4.677247   5.542304   6.602843
    29  H    4.598792   5.412194   5.304149   6.502893   7.288034
    30  H    2.783801   4.049744   4.593583   5.852732   6.203071
    31  H    1.095321   2.130575   3.145652   4.268241   4.281918
    32  H    1.094914   2.162414   3.517490   4.296425   3.888628
    33  H    3.071499   2.275642   1.077693   2.167724   3.307906
    34  H    4.691602   3.301893   2.159394   1.080312   2.249027
    35  H    4.602079   3.259661   3.281736   2.234037   1.079866
    36  H    2.894683   2.241893   3.389207   3.340898   2.165301
                   21         22         23         24         25
    21  C    0.000000
    22  H    5.906832   0.000000
    23  H    4.785471   1.777800   0.000000
    24  H    3.904309   3.831028   3.019666   0.000000
    25  H    4.444638   5.300788   5.140559   2.644641   0.000000
    26  H    5.353509   4.953806   5.502902   4.320700   2.626988
    27  H    5.497718   2.795194   3.825280   4.307914   4.241531
    28  H    6.521515   2.600145   3.181010   5.879979   7.270251
    29  H    6.754790   4.841427   5.095167   7.445514   8.465877
    30  H    5.296286   5.868881   5.669767   7.228118   7.867770
    31  H    3.218172   6.241455   5.408497   6.179820   6.892934
    32  H    2.657767   6.160649   5.572962   5.640850   5.691698
    33  H    3.380637   4.011736   2.562833   4.087166   5.967062
    34  H    3.321980   4.499640   2.871733   2.370836   4.706924
    35  H    2.156923   6.222442   4.970269   2.995334   3.771864
    36  H    1.074802   6.787733   5.789898   4.676712   4.678391
                   26         27         28         29         30
    26  H    0.000000
    27  H    2.653636   0.000000
    28  H    6.445322   3.898786   0.000000
    29  H    7.317029   5.039249   2.495706   0.000000
    30  H    6.866469   5.324252   4.283773   2.488275   0.000000
    31  H    6.683013   5.836865   5.489153   4.575756   2.537696
    32  H    5.308519   5.049699   5.927185   5.281079   3.256579
    33  H    6.421368   5.070770   3.975728   4.658765   4.336704
    34  H    6.188791   5.630697   5.760856   7.041554   6.690506
    35  H    5.668750   6.202065   7.519789   8.327723   7.248851
    36  H    5.500061   6.017240   7.358829   7.377025   5.655066
                   31         32         33         34         35
    31  H    0.000000
    32  H    1.778680   0.000000
    33  H    3.337927   4.081000   0.000000
    34  H    5.251419   5.360284   2.632424   0.000000
    35  H    5.288257   4.752875   4.294823   2.662520   0.000000
    36  H    3.508495   2.604716   4.392014   4.327530   2.619587
                   36
    36  H    0.000000
 Stoichiometry    C17H15Cl2NZr
 Framework group  C1[X(C17H15Cl2NZr)]
 Deg. of freedom   102
 Full point group                 C1      NOp   1
 Largest Abelian subgroup         C1      NOp   1
 Largest concise Abelian subgroup C1      NOp   1
                         Standard orientation:                         
 ---------------------------------------------------------------------
 Center     Atomic      Atomic             Coordinates (Angstroms)
 Number     Number       Type             X           Y           Z
 ---------------------------------------------------------------------
      1         40           0       -0.564746   -0.068138   -0.155641
      2         17           0       -2.471268   -0.353863   -0.363627
      3         17           0       -0.249857   -0.923484   -1.867059
      4          7           0        1.145174    0.133432   -0.126894
      5          6           0        1.976759    1.100852    0.490543
      6          6           0        1.152645    2.082694    1.284369
      7          6           0       -0.142432    2.032464    0.582486
      8          6           0       -1.424763    1.751126    0.839629
      9          6           0       -2.152513    1.824501   -0.411818
     10          6           0       -1.323394    2.098436   -1.428582
     11          6           0       -0.041766    2.237537   -0.854701
     12          6           0        3.363080    1.165111    0.426545
     13          6           0        4.024599    0.154029   -0.258045
     14          6           0        3.294060   -0.930141   -0.736365
     15          6           0        1.909113   -0.919313   -0.568059
     16          6           0        1.152196   -2.184319   -0.345992
     17          6           0        0.224196   -1.886848    0.787020
     18          6           0        0.459474   -1.009980    1.940703
     19          6           0       -0.745017   -0.643270    2.387386
     20          6           0       -1.749292   -1.352693    1.619803
     21          6           0       -1.179345   -2.099114    0.664135
     22          1           0        1.587323    3.087501    1.243130
     23          1           0        1.075738    1.778337    2.331681
     24          1           0       -1.887927    1.571225    1.791148
     25          1           0       -3.218830    1.677026   -0.491751
     26          1           0       -1.577534    2.223709   -2.468707
     27          1           0        0.823483    2.586873   -1.398655
     28          1           0        3.910601    1.971051    0.901561
     29          1           0        5.108458    0.160162   -0.329036
     30          1           0        3.805641   -1.813852   -1.101987
     31          1           0        1.818338   -3.009468   -0.071923
     32          1           0        0.617143   -2.456746   -1.261600
     33          1           0        1.419358   -0.761165    2.362765
     34          1           0       -0.947766   -0.036655    3.258009
     35          1           0       -2.808805   -1.278940    1.815000
     36          1           0       -1.678092   -2.719075   -0.058428
 ---------------------------------------------------------------------
 Rotational constants (GHZ):      0.4833796      0.3329588      0.2911440
 Leave Link  202 at Mon Sep 15 12:53:24 2025, MaxMem=    33554432 cpu:         0.0
 (Enter /appl/g09.shchoi/G09Files/g09/l301.exe)
 Standard basis: SDD (6D, 10F)
 Ernie: Thresh=  0.10000D-02 Tol=  0.10000D-05 Strict=F.
 There are   285 symmetry adapted cartesian basis functions of A   symmetry.
 There are   285 symmetry adapted basis functions of A   symmetry.
   285 basis functions,   629 primitive gaussians,   285 cartesian basis functions
    85 alpha electrons       85 beta electrons
       nuclear repulsion energy      2370.0930679525 Hartrees.



 Warning!  Cl atom    2 may be hypervalent but has no d functions.
 Warning!  Cl atom    3 may be hypervalent but has no d functions.



 IExCor=    0 DFT=F Ex=HF Corr=None ExCW=0 ScaHFX=  1.000000
 ScaDFX=  1.000000  1.000000  1.000000  1.000000 ScalE2=  1.000000  1.000000
 IRadAn=      0 IRanWt=     -1 IRanGd=            0 ICorTp=0 IEmpDi=  4
 NAtoms=   36 NActive=   36 NUniq=   36 SFac= 1.00D+00 NAtFMM=   60 NAOKFM=F Big=F
 Integral buffers will be    131072 words long.
 Raffenetti 1 integral format.
 Two-electron integral symmetry is turned on.
 Leave Link  301 at Mon Sep 15 12:53:24 2025, MaxMem=    33554432 cpu:         0.0
 (Enter /appl/g09.shchoi/G09Files/g09/l402.exe)
 External calculation of energy and first derivatives.
 Running external command "/home/rxn_grp/programs/xtb-gaussian R"
         input file       "/home/rxn_grp/scratch/Gau-2492301.EIn"
         output file      "/home/rxn_grp/scratch/Gau-2492301.EOu"
         message file     "/home/rxn_grp/scratch/Gau-2492301.EMs"
         fchk file        "/home/rxn_grp/scratch/Gau-2492301.EFC"
         mat. el file     "/home/rxn_grp/scratch/Gau-2492301.EUF"

 ExternalExternalExternalExternalExternalExternalExternalExternalExternalExternal
 Output from external command:
 "/home/rxn_grp/programs/xtb-gaussian R /home/rxn_grp/scratch/Gau-2492301.EIn /home/rxn_grp/scratch/Gau-2492301.EOu /home/rxn_grp/scratch/Gau-2492301.EMs /home/rxn_grp/scratch/Gau-2492301.EFC /home/rxn_grp/scratch/Gau-2492301.EUF"
 normal termination of xtb
  
 ------- xtb command was ---------
 ?> xtb ./Gau-2492301.EIn  --grad --charge 0  >/dev/null 2>Gau-2492301.EMs
 ---------------------------------
              Control returned to Gaussian.
 ~~~~~~~~~~~~~~~~~~~~~~~~~~~~~~~~~~~~~~~~~~~~~~~~~~~~~~~~~~~~~~~~~~~~~~~~~
 ExternalExternalExternalExternalExternalExternalExternalExternalExternalExternal

 Recovered energy= -57.4577624556     dipole=      2.144667267020      0.481118532612      1.149862343180
 Energy=    -57.4577625     NIter=   0.
 Dipole moment=       2.144667       0.481119       1.149862
 Leave Link  402 at Mon Sep 15 12:53:24 2025, MaxMem=    33554432 cpu:         0.0
 (Enter /appl/g09.shchoi/G09Files/g09/l601.exe)
 Leave Link  601 at Mon Sep 15 12:53:24 2025, MaxMem=    33554432 cpu:         0.0
 (Enter /appl/g09.shchoi/G09Files/g09/l716.exe)
 Dipole        = 2.14466727D+00 4.81118533D-01 1.14986234D+00
 ***** Axes restored to original set *****
 -------------------------------------------------------------------
 Center     Atomic                   Forces (Hartrees/Bohr)
 Number     Number              X              Y              Z
 -------------------------------------------------------------------
      1       40          -0.256599926    0.014545691    0.028226111
      2       17           0.060252158   -0.003034724   -0.334285172
      3       17           0.295361628    0.077069513   -0.047004954
      4        7          -0.000626351    0.006199408    0.319039541
      5        6           0.008250536   -0.001419381   -0.009882292
      6        6          -0.004480611   -0.002011987    0.006915680
      7        6           0.025965550    0.062362339    0.041378721
      8        6          -0.029447472    0.017077190   -0.054766145
      9        6          -0.060868589    0.026512371   -0.024436233
     10        6           0.014767538    0.022022210    0.025396778
     11        6          -0.000289230    0.001673901    0.006413861
     12        6           0.000033753   -0.002246471   -0.019335646
     13        6           0.012726745   -0.002584663    0.009917929
     14        6          -0.012570736    0.005854130   -0.000929576
     15        6          -0.005877024   -0.013543002    0.012481778
     16        6           0.012623725   -0.046201384    0.026296767
     17        6          -0.007443543   -0.029269915    0.000380765
     18        6           0.057599998   -0.014989510    0.030090032
     19        6          -0.019129149   -0.006266672   -0.065062333
     20        6          -0.096227436   -0.026331515    0.003391535
     21        6           0.028174317   -0.050920923    0.039030870
     22        1          -0.001017977   -0.001569578    0.000943037
     23        1          -0.001779293   -0.002656973    0.001895524
     24        1          -0.009013067   -0.000255433   -0.004376696
     25        1          -0.010476537    0.016655800   -0.000793498
     26        1           0.001406469    0.001555108   -0.000495577
     27        1          -0.000256477   -0.000666185    0.005193197
     28        1           0.001087944   -0.002765440   -0.005087621
     29        1           0.000373345    0.001471189   -0.004290963
     30        1          -0.002200401    0.003477528   -0.004236544
     31        1           0.003084216   -0.002593312    0.009508684
     32        1          -0.002264403   -0.031848173    0.009015534
     33        1           0.001482102   -0.000638130    0.004057963
     34        1          -0.002561813   -0.002376650   -0.001499182
     35        1          -0.005958638   -0.006188459   -0.001293922
     36        1           0.005898648   -0.006097897   -0.001797955
 -------------------------------------------------------------------
 Cartesian Forces:  Max     0.334285172 RMS     0.062923597
 Leave Link  716 at Mon Sep 15 12:53:24 2025, MaxMem=    33554432 cpu:         0.0
 (Enter /appl/g09.shchoi/G09Files/g09/l103.exe)

 GradGradGradGradGradGradGradGradGradGradGradGradGradGradGradGradGradGrad
 Berny optimization.
 FormGI is forming the generalized inverse of G from B-inverse, IUseBI=4.
 Internal  Forces:  Max     0.334285170 RMS     0.026317725
 Search for a local minimum.
 Step number   1 out of a maximum of  216
 All quantities printed in internal units (Hartrees-Bohrs-Radians)
 RMS Force = .26318D-01 SwitMx=.10000D-02 MixMth= 1
 Mixed Optimization -- RFO/linear search
 Second derivative matrix not updated -- first step.
 ITU=  0
     Eigenvalues ---    0.00551   0.01267   0.01396   0.01505   0.01540
     Eigenvalues ---    0.01567   0.01602   0.01648   0.01768   0.01794
     Eigenvalues ---    0.02061   0.02103   0.02185   0.02226   0.02231
     Eigenvalues ---    0.02234   0.02247   0.02651   0.02712   0.02832
     Eigenvalues ---    0.03024   0.03243   0.03422   0.03541   0.03689
     Eigenvalues ---    0.03727   0.03901   0.03952   0.04066   0.04212
     Eigenvalues ---    0.04467   0.04634   0.05112   0.05477   0.05788
     Eigenvalues ---    0.06044   0.06157   0.06358   0.06368   0.06668
     Eigenvalues ---    0.07274   0.07357   0.07773   0.08037   0.08267
     Eigenvalues ---    0.08834   0.08852   0.09027   0.09507   0.11068
     Eigenvalues ---    0.11755   0.13912   0.15576   0.15772   0.15917
     Eigenvalues ---    0.15999   0.16421   0.16981   0.17729   0.18069
     Eigenvalues ---    0.18743   0.19345   0.21533   0.22372   0.23722
     Eigenvalues ---    0.25000   0.26181   0.26916   0.28118   0.28135
     Eigenvalues ---    0.28964   0.29286   0.30257   0.32435   0.33298
     Eigenvalues ---    0.34176   0.34205   0.34251   0.34429   0.35256
     Eigenvalues ---    0.35445   0.35521   0.35957   0.35984   0.36011
     Eigenvalues ---    0.36063   0.36234   0.36274   0.36630   0.36799
     Eigenvalues ---    0.37685   0.39226   0.39700   0.40641   0.42607
     Eigenvalues ---    0.43104   0.44519   0.44736   0.46765   0.46765
     Eigenvalues ---    0.46858   0.47313
 RFO step:  Lambda=-3.98646417D-01 EMin= 5.51046679D-03
 Linear search not attempted -- first point.
 Maximum step size (   0.300) exceeded in Quadratic search.
    -- Step size scaled by   0.429
 Iteration  1 RMS(Cart)=  0.01883955 RMS(Int)=  0.00020582
 Iteration  2 RMS(Cart)=  0.00019455 RMS(Int)=  0.00005655
 Iteration  3 RMS(Cart)=  0.00000008 RMS(Int)=  0.00005655
 ITry= 1 IFail=0 DXMaxC= 1.88D-01 DCOld= 1.00D+10 DXMaxT= 3.00D-01 DXLimC= 3.00D+00 Rises=F
 Variable       Old X    -DE/DX   Delta X   Delta X   Delta X     New X
                                 (Linear)    (Quad)   (Total)
    R1        3.66418   0.33429   0.00000   0.16560   0.16560   3.82977
    R2        3.66418   0.29536   0.00000   0.14631   0.14631   3.81049
    R3        3.25411   0.18538   0.00000   0.10779   0.10781   3.36192
    R4        4.28252   0.02318   0.00000   0.01880   0.01868   4.30120
    R5        4.24239   0.04483   0.00000   0.03732   0.03735   4.27974
    R6        4.69349   0.05627   0.00000   0.04889   0.04893   4.74242
    R7        4.96029   0.02280   0.00000   0.01972   0.01970   4.98000
    R8        4.65898   0.01124   0.00000   0.00885   0.00883   4.66781
    R9        5.00494   0.07972   0.00000   0.05837   0.05823   5.06317
   R10        4.14826   0.06165   0.00000   0.04838   0.04840   4.19666
   R11        4.75474   0.00748   0.00000   0.00556   0.00563   4.76037
   R12        4.93876   0.01403   0.00000   0.01196   0.01198   4.95073
   R13        4.70744   0.04511   0.00000   0.03833   0.03826   4.74570
   R14        4.29871   0.05008   0.00000   0.04244   0.04245   4.34116
   R15        2.67826  -0.05114   0.00000  -0.02574  -0.02566   2.65260
   R16        2.59554  -0.02420   0.00000  -0.00599  -0.00571   2.58983
   R17        2.84925   0.02062   0.00000   0.01061   0.01070   2.85996
   R18        2.62537  -0.01986   0.00000  -0.00928  -0.00929   2.61608
   R19        2.78527   0.03691   0.00000   0.02016   0.02014   2.80541
   R20        2.07033  -0.00045   0.00000  -0.00026  -0.00026   2.07008
   R21        2.06613   0.00310   0.00000   0.00179   0.00179   2.06792
   R22        2.52803   0.04935   0.00000   0.02602   0.02607   2.55410
   R23        2.74999  -0.01367   0.00000  -0.00711  -0.00714   2.74284
   R24        2.73921  -0.00111   0.00000   0.00011   0.00008   2.73928
   R25        2.02851   0.00870   0.00000   0.00487   0.00487   2.03338
   R26        2.53272   0.02187   0.00000   0.01260   0.01265   2.54537
   R27        2.03983   0.00107   0.00000   0.00060   0.00060   2.04043
   R28        2.66663   0.00224   0.00000   0.00142   0.00144   2.66807
   R29        2.03718   0.00211   0.00000   0.00119   0.00119   2.03836
   R30        2.04106   0.00365   0.00000   0.00206   0.00206   2.04312
   R31        2.62431   0.00871   0.00000   0.00455   0.00451   2.62882
   R32        2.04838  -0.00516   0.00000  -0.00294  -0.00294   2.04544
   R33        2.63066   0.00056   0.00000  -0.00002  -0.00005   2.63061
   R34        2.05262  -0.00417   0.00000  -0.00238  -0.00238   2.05023
   R35        2.63650  -0.00468   0.00000  -0.00285  -0.00284   2.63367
   R36        2.04958  -0.00502   0.00000  -0.00286  -0.00286   2.04672
   R37        2.81720   0.04431   0.00000   0.02861   0.02859   2.84579
   R38        2.82411   0.02292   0.00000   0.01501   0.01495   2.83906
   R39        2.06986   0.00769   0.00000   0.00446   0.00446   2.07431
   R40        2.06909  -0.01367   0.00000  -0.00792  -0.00792   2.06117
   R41        2.77425  -0.01732   0.00000  -0.01074  -0.01071   2.76355
   R42        2.69250   0.00257   0.00000   0.00258   0.00249   2.69499
   R43        2.52461   0.04184   0.00000   0.02188   0.02189   2.54650
   R44        2.03654   0.00344   0.00000   0.00194   0.00194   2.03849
   R45        2.73915  -0.02875   0.00000  -0.01710  -0.01708   2.72207
   R46        2.04149   0.00222   0.00000   0.00125   0.00125   2.04275
   R47        2.53201   0.04534   0.00000   0.02503   0.02502   2.55703
   R48        2.04065   0.00293   0.00000   0.00165   0.00165   2.04231
   R49        2.03108   0.00666   0.00000   0.00374   0.00374   2.03482
    A1        1.57080  -0.02473   0.00000  -0.02153  -0.02150   1.54929
    A2        1.93345   0.01563   0.00000   0.01182   0.01177   1.94522
    A3        1.35953   0.01053   0.00000   0.01100   0.01100   1.37052
    A4        1.01533   0.01034   0.00000   0.01035   0.01042   1.02574
    A5        1.35454   0.00340   0.00000   0.00268   0.00271   1.35726
    A6        1.89227   0.00455   0.00000   0.00372   0.00368   1.89595
    A7        2.59510  -0.00933   0.00000  -0.00877  -0.00872   2.58638
    A8        1.85184   0.00134   0.00000   0.00086   0.00084   1.85267
    A9        2.02023   0.00967   0.00000   0.00779   0.00771   2.02794
   A10        1.57492   0.00754   0.00000   0.00801   0.00801   1.58293
   A11        1.08480   0.01339   0.00000   0.01186   0.01186   1.09667
   A12        1.20407   0.00963   0.00000   0.00755   0.00755   1.21162
   A13        1.47577   0.01221   0.00000   0.00999   0.01003   1.48579
   A14        2.29978  -0.02098   0.00000  -0.01417  -0.01429   2.28549
   A15        2.51663  -0.02712   0.00000  -0.02094  -0.02095   2.49568
   A16        1.92723  -0.01971   0.00000  -0.01473  -0.01479   1.91243
   A17        1.55381  -0.02118   0.00000  -0.01535  -0.01538   1.53842
   A18        1.69898  -0.01806   0.00000  -0.01313  -0.01316   1.68581
   A19        1.12531   0.02411   0.00000   0.01974   0.01984   1.14514
   A20        1.52596   0.02219   0.00000   0.01736   0.01741   1.54338
   A21        2.09919   0.01622   0.00000   0.01377   0.01377   2.11297
   A22        2.45429   0.01974   0.00000   0.01403   0.01399   2.46828
   A23        2.07011   0.01548   0.00000   0.00969   0.00976   2.07987
   A24        1.53890   0.01563   0.00000   0.01252   0.01269   1.55159
   A25        1.26717  -0.00548   0.00000  -0.00209  -0.00205   1.26512
   A26        1.85265   0.00101   0.00000  -0.00015  -0.00014   1.85251
   A27        2.14995  -0.00225   0.00000  -0.00264  -0.00261   2.14734
   A28        1.77060  -0.00057   0.00000   0.00026   0.00031   1.77091
   A29        1.24994  -0.00030   0.00000   0.00055   0.00060   1.25054
   A30        1.30045  -0.00487   0.00000  -0.00435  -0.00440   1.29605
   A31        1.18715  -0.00571   0.00000  -0.00418  -0.00421   1.18294
   A32        1.64888   0.00004   0.00000  -0.00120  -0.00125   1.64763
   A33        2.11840  -0.00898   0.00000  -0.00821  -0.00823   2.11017
   A34        1.94634  -0.01275   0.00000  -0.01063  -0.01064   1.93570
   A35        0.98410  -0.00227   0.00000  -0.00438  -0.00436   0.97974
   A36        0.98451  -0.00562   0.00000  -0.00503  -0.00501   0.97950
   A37        1.74624  -0.00693   0.00000  -0.00347  -0.00349   1.74275
   A38        2.16653   0.00077   0.00000   0.00054   0.00051   2.16704
   A39        1.57054   0.00854   0.00000   0.00573   0.00574   1.57627
   A40        1.47053   0.00867   0.00000   0.00621   0.00621   1.47674
   A41        1.91182   0.00465   0.00000   0.00379   0.00376   1.91559
   A42        2.43495   0.00544   0.00000   0.00201   0.00194   2.43689
   A43        0.97084  -0.00484   0.00000  -0.00489  -0.00486   0.96598
   A44        0.98736   0.00017   0.00000  -0.00131  -0.00131   0.98605
   A45        2.32856  -0.00120   0.00000  -0.00223  -0.00227   2.32628
   A46        2.23788   0.00473   0.00000   0.00352   0.00349   2.24137
   A47        1.66083   0.01095   0.00000   0.00716   0.00716   1.66799
   A48        1.28755   0.00416   0.00000   0.00467   0.00467   1.29222
   A49        1.49045   0.00197   0.00000   0.00456   0.00454   1.49500
   A50        2.04907   0.00699   0.00000   0.00575   0.00572   2.05479
   A51        0.91941  -0.00042   0.00000  -0.00191  -0.00192   0.91749
   A52        2.54270   0.00284   0.00000   0.00179   0.00163   2.54433
   A53        2.70310   0.00237   0.00000   0.00223   0.00221   2.70531
   A54        2.25417   0.00391   0.00000   0.00133   0.00137   2.25554
   A55        1.79667  -0.00268   0.00000  -0.00088  -0.00082   1.79586
   A56        1.73400   0.00370   0.00000   0.00551   0.00549   1.73949
   A57        2.14695   0.01235   0.00000   0.01070   0.01065   2.15760
   A58        2.04847   0.00481   0.00000   0.00509   0.00501   2.05348
   A59        2.55111   0.00309   0.00000   0.00081   0.00083   2.55194
[...]
 ! D224  D(21,17,18,33)        172.3393         -DE/DX =    0.0                 !
 ! D225  D(16,17,21,20)        178.1511         -DE/DX =    0.0                 !
 ! D226  D(16,17,21,36)          4.4075         -DE/DX =    0.0                 !
 ! D227  D(18,17,21,20)         -1.946          -DE/DX =    0.0                 !
 ! D228  D(18,17,21,36)       -175.6896         -DE/DX =    0.0                 !
 ! D229  D(17,18,19,20)          0.022          -DE/DX =    0.0                 !
 ! D230  D(17,18,19,34)        171.3974         -DE/DX =    0.0                 !
 ! D231  D(33,18,19,20)       -171.0471         -DE/DX =    0.0                 !
 ! D232  D(33,18,19,34)          0.3283         -DE/DX =    0.0                 !
 ! D233  D(18,19,20,21)         -1.2337         -DE/DX =    0.0                 !
 ! D234  D(18,19,20,35)        174.7694         -DE/DX =    0.0                 !
 ! D235  D(34,19,20,21)       -172.6466         -DE/DX =    0.0                 !
 ! D236  D(34,19,20,35)          3.3565         -DE/DX =    0.0                 !
 ! D237  D(19,20,21,17)          1.9688         -DE/DX =    0.0                 !
 ! D238  D(19,20,21,36)        175.7216         -DE/DX =    0.0                 !
 ! D239  D(35,20,21,17)       -174.0496         -DE/DX =    0.0                 !
 ! D240  D(35,20,21,36)         -0.2968         -DE/DX =    0.0                 !
 --------------------------------------------------------------------------------
 GradGradGradGradGradGradGradGradGradGradGradGradGradGradGradGradGradGrad

 Largest change from initial coordinates is atom   25       1.308 Angstoms.
 Leave Link  103 at Mon Sep 15 12:53:48 2025, MaxMem=    33554432 cpu:         0.0
 (Enter /appl/g09.shchoi/G09Files/g09/l202.exe)
                          Input orientation:                          
 ---------------------------------------------------------------------
 Center     Atomic      Atomic             Coordinates (Angstroms)
 Number     Number       Type             X           Y           Z
 ---------------------------------------------------------------------
      1         40           0        0.000007    0.220621   -0.252099
      2         17           0        1.086009    0.898291   -2.261124
      3         17           0        2.097633    0.734157    0.722139
      4          7           0       -0.072839   -0.211126    2.232672
      5          6           0       -0.252451    0.815995    3.067747
      6          6           0       -0.756197    2.109195    2.479415
      7          6           0       -1.180059    1.945343    1.048956
      8          6           0       -2.201874    1.076761    0.592272
      9          6           0       -2.310810    1.235122   -0.808096
     10          6           0       -1.366233    2.192772   -1.214396
     11          6           0       -0.643759    2.615831   -0.076418
     12          6           0        0.035910    0.727779    4.424827
     13          6           0        0.542337   -0.456894    4.928763
     14          6           0        0.757352   -1.508810    4.056323
     15          6           0        0.444862   -1.345734    2.711591
     16          6           0        0.716207   -2.454746    1.727378
     17          6           0        0.138672   -2.155423    0.374751
     18          6           0       -1.233943   -1.935878    0.101244
     19          6           0       -1.368288   -1.712884   -1.287993
     20          6           0       -0.091574   -1.794036   -1.869146
     21          6           0        0.849168   -2.039297   -0.844000
     22          1           0        0.053521    2.845223    2.541555
     23          1           0       -1.587076    2.479408    3.091404
     24          1           0       -2.878352    0.515944    1.225557
     25          1           0       -3.084029    0.811297   -1.434705
     26          1           0       -1.256597    2.591182   -2.213843
     27          1           0        0.109930    3.396282   -0.054954
     28          1           0       -0.128152    1.579780    5.065841
     29          1           0        0.775667   -0.554540    5.978225
     30          1           0        1.169627   -2.443460    4.402988
     31          1           0        0.309864   -3.391989    2.125382
     32          1           0        1.802689   -2.573868    1.645716
     33          1           0       -2.044201   -2.073000    0.806833
     34          1           0       -2.301564   -1.644616   -1.830616
     35          1           0        0.127839   -1.747714   -2.927146
     36          1           0        1.910556   -2.217207   -0.983431
 ---------------------------------------------------------------------
                    Distance matrix (angstroms):
                    1          2          3          4          5
     1  Zr   0.000000
     2  Cl   2.382188   0.000000
     3  Cl   2.369155   3.154391   0.000000
     4  N    2.523053   4.771576   2.808242   0.000000
     5  C    3.382245   5.495009   3.321366   1.335885   0.000000
     6  C    3.405836   5.228070   3.622581   2.431409   1.507403
     7  C    2.461700   4.145843   3.509566   2.697680   2.492269
     8  C    2.508828   4.357051   4.315090   2.980327   3.161681
     9  C    2.584226   3.709869   4.693289   4.043070   4.408478
    10  C    2.584958   2.963918   4.228013   4.397030   4.633873
    11  C    2.486429   3.273375   3.419594   3.694527   3.643941
    12  C    4.704480   6.770061   4.238000   2.387240   1.390180
    13  C    5.253044   7.336660   4.640392   2.776284   2.390671
    14  C    4.703935   6.768478   4.236041   2.387239   2.720607
    15  C    3.381541   5.493143   3.318964   1.335932   2.299165
    16  C    3.404242   5.223769   3.617727   2.431409   3.665056
    17  C    2.461251   4.143725   3.508259   2.697572   4.029209
    18  C    2.509576   4.358380   4.314395   2.977569   4.163685
    19  C    2.585296   3.713326   4.694811   4.040860   5.158759
    20  C    2.584970   2.964619   4.230738   4.396687   5.586685
    21  C    2.485690   3.270131   3.421038   3.695702   4.966691
    22  H    3.833523   5.284156   3.456193   3.074515   2.118553
    23  H    4.335893   6.188285   4.715549   3.204576   2.132775
    24  H    3.248943   5.293325   5.006144   3.068194   3.221654
    25  H    3.355403   4.252029   5.613159   4.854097   5.318828
    26  H    3.323711   2.890661   4.829016   5.387551   5.661696
    27  H    3.183673   3.472734   3.412000   4.275515   4.066997
    28  H    5.490375   7.458085   4.953478   3.352201   2.142708
    29  H    6.326094   8.372211   5.570887   3.855784   3.377317
    30  H    5.489551   7.455513   4.950464   3.352210   3.798581
    31  H    4.335825   6.184686   4.710658   3.205599   4.348721
    32  H    3.828907   5.275691   3.447175   3.073219   4.211525
    33  H    3.249742   5.295200   5.004208   3.063635   4.082695
    34  H    3.356793   4.257624   5.614985   4.851022   5.852131
    35  H    3.323637   2.891887   4.832913   5.387494   6.531153
    36  H    3.182460   3.466800   3.413871   4.278030   5.503722
                    6          7          8          9         10
     6  C    0.000000
     7  C    1.500906   0.000000
     8  C    2.591758   1.416722   0.000000
     9  C    3.740128   2.287282   1.413499   0.000000
    10  C    3.744779   2.284436   2.282067   1.405133   0.000000
    11  C    2.607988   1.415499   2.289891   2.284900   1.412778
    12  C    2.514035   3.789136   4.451735   5.757429   5.992750
    13  C    3.777606   4.877529   5.356112   6.626833   6.957138
    14  C    4.226989   4.972826   5.238497   6.372234   6.781726
    15  C    3.665103   4.029381   4.167158   5.161662   5.586991
    16  C    4.854183   4.839098   4.719662   5.404313   5.881328
    17  C    4.839149   4.360033   3.996559   4.346826   4.867949
    18  C    4.716626   3.995616   3.202187   3.470128   4.335224
    19  C    5.401510   4.345042   3.465889   3.131995   3.906351
    20  C    5.881064   4.866526   4.330522   3.902132   4.236519
    21  C    5.552681   4.855760   4.591466   4.550668   4.791201
    22  H    1.096011   2.135264   3.466116   4.404844   4.067992
    23  H    1.096335   2.149996   2.931050   4.156699   4.320978
    24  H    2.934988   2.226785   1.083138   2.230486   3.324399
    25  H    4.735364   3.328623   2.226501   1.081727   2.215363
    26  H    4.744405   3.326984   3.325853   2.219546   1.081501
    27  H    2.971497   2.233364   3.338191   3.331339   2.229754
    28  H    2.713728   4.168394   4.956427   6.275821   6.430395
    29  H    4.656583   5.862762   6.366740   7.667033   7.991825
    30  H    5.304300   6.002678   6.187126   7.266417   7.712343
    31  H    5.614700   5.644970   5.350606   6.073170   6.719597
    32  H    5.401299   5.447585   5.520268   6.119679   6.398684
    33  H    4.684788   4.117335   3.160996   3.690901   4.768839
    34  H    5.920779   4.736826   3.645027   3.055900   3.997514
    35  H    6.699863   5.581994   5.078535   4.397123   4.548977
    36  H    6.149848   5.568602   5.499559   5.456121   5.498964
                   11         12         13         14         15
    11  C    0.000000
    12  C    4.928275   0.000000
    13  C    5.991685   1.383426   0.000000
    14  C    6.004609   2.378782   1.383441   0.000000
    15  C    4.965087   2.720638   2.390687   1.390161   0.000000
    16  C    5.551031   4.226997   3.777632   2.514055   1.507386
    17  C    4.855988   4.972577   4.877188   3.788779   2.492021
    18  C    4.593249   5.234593   5.352336   4.448629   3.159204
    19  C    4.553091   6.369060   6.623900   5.755147   4.406698
    20  C    4.792255   6.781585   6.957108   5.992763   4.633777
    21  C    4.948559   6.006550   5.993574   4.929809   3.645096
    22  H    2.718933   2.833831   4.103862   4.663423   4.212621
    23  H    3.308104   2.735015   4.065975   4.725812   4.347958
    24  H    3.331376   4.332796   5.134321   5.033012   4.088752
    25  H    3.325087   6.638909   7.433206   7.091579   5.856417
    26  H    2.223683   7.015325   7.971433   7.757636   6.531016
    27  H    1.085179   5.214866   6.314378   6.432860   5.500242
    28  H    5.270871   1.078759   2.148577   3.367882   3.798613
    29  H    6.980310   2.145840   1.079514   2.145851   3.377324
    30  H    6.996418   3.367870   2.148575   1.078757   2.142687
    31  H    6.469252   4.725990   4.065436   2.734070   2.132845
    32  H    5.990311   4.663244   4.104688   2.835155   2.118513
    33  H    4.972575   5.026043   5.127600   4.327378   3.217523
    34  H    4.896625   7.086791   7.428839   6.635621   5.316374
    35  H    5.269016   7.758094   7.972034   7.015854   5.661930
    36  H    5.541251   6.437119   6.318605   5.218317   4.069511
                   16         17         18         19         20
    16  C    0.000000
    17  C    1.500913   0.000000
    18  C    2.591645   1.416714   0.000000
    19  C    3.740046   2.287245   1.413420   0.000000
    20  C    3.744868   2.284445   2.282008   1.405106   0.000000
    21  C    2.608115   1.415502   2.289876   2.284904   1.412824
    22  H    5.402935   5.450573   5.520110   6.120729   6.402972
    23  H    5.613516   5.642701   5.344204   6.066491   6.716093
    24  H    4.690169   4.118557   3.159050   3.683192   4.762282
    25  H    5.925167   4.739342   3.650881   3.055615   3.991402
    26  H    6.699744   5.583714   5.084724   4.403937   4.550410
    27  H    6.146447   5.568384   5.501121   5.459771   5.501936
    28  H    5.304307   6.002437   6.183029   7.262974   7.712199
    29  H    4.656610   5.862381   6.362825   7.663957   7.991851
    30  H    2.713780   4.168036   4.953765   6.273916   6.430555
    31  H    1.096333   2.150142   2.932701   4.157730   4.320979
    32  H    1.096039   2.135274   3.466058   4.404888   4.068245
    33  H    2.934789   2.226752   1.083133   2.230435   3.324370
    34  H    4.735248   3.328562   2.226372   1.081714   2.215371
    35  H    4.744541   3.326991   3.325808   2.219556   1.081504
    36  H    2.971764   2.233394   3.338194   3.331354   2.229818
                   21         22         23         24         25
    21  C    0.000000
    22  H    5.996130   0.000000
    23  H    6.468492   1.768534   0.000000
    24  H    4.970587   3.969039   3.000662   0.000000
    25  H    4.893348   5.458179   5.050656   2.684498   0.000000
    26  H    5.268022   4.939104   5.316705   4.331994   2.667312
    27  H    5.542074   2.654939   3.690536   4.343488   4.334425
    28  H    6.998506   2.829554   2.614611   4.841810   7.182261
    29  H    6.982311   4.887800   4.808444   6.089799   8.468429
    30  H    5.272279   5.716712   5.792607   5.936352   7.922480
    31  H    3.307243   6.256335   6.245389   5.123119   6.469957
    32  H    2.719127   5.764431   6.254288   5.624555   6.695397
    33  H    3.331362   5.621265   5.113967   2.752048   3.798013
    34  H    3.325101   6.694845   6.460987   3.786938   2.607778
    35  H    2.223698   7.141938   7.551982   5.604130   4.369440
    36  H    1.085190   6.442228   7.134137   5.939982   5.858444
                   26         27         28         29         30
    26  H    0.000000
    27  H    2.678878   0.000000
    28  H    7.435733   5.438649   0.000000
    29  H    9.007533   7.242337   2.490914   0.000000
    30  H    8.661214   7.422856   4.279026   2.490903   0.000000
    31  H    7.555198   7.132634   5.792809   4.807545   2.612736
    32  H    7.136748   6.434314   5.716484   4.889080   2.832018
    33  H    5.612432   5.941044   5.929013   6.082818   4.837175
    34  H    4.379590   5.863355   7.917169   8.463783   7.179494
    35  H    4.609933   5.891562   8.661731   9.008273   7.436413
    36  H    5.887732   5.967879   7.427458   7.246868   5.441845
                   31         32         33         34         35
    31  H    0.000000
    32  H    1.768595   0.000000
    33  H    3.003319   3.969025   0.000000
    34  H    5.052009   5.458322   2.684378   0.000000
    35  H    5.316466   4.939505   4.331993   2.667397   0.000000
    36  H    3.688774   2.655420   4.343495   4.334460   2.678905
                   36
    36  H    0.000000
 Stoichiometry    C17H15Cl2NZr
 Framework group  C1[X(C17H15Cl2NZr)]
 Deg. of freedom   102
 Full point group                 C1      NOp   1
 RotChk:  IX=2 Diff= 6.77D-16
 Largest Abelian subgroup         C1      NOp   1
 Largest concise Abelian subgroup C1      NOp   1
                         Standard orientation:                         
 ---------------------------------------------------------------------
 Center     Atomic      Atomic             Coordinates (Angstroms)
 Number     Number       Type             X           Y           Z
 ---------------------------------------------------------------------
      1         40           0       -0.830859   -0.000049   -0.089236
      2         17           0       -2.797592   -0.001922   -1.433401
      3         17           0        0.264758   -0.001152   -2.189835
      4          7           0        1.670453    0.000104    0.241264
      5          6           0        2.342310    1.149568    0.132039
      6          6           0        1.543628    2.427286    0.174542
      7          6           0        0.112970    2.180276    0.555230
      8          6           0       -0.321910    1.601953    1.773229
      9          6           0       -1.734878    1.567344    1.755826
     10          6           0       -2.170598    2.119380    0.539354
     11          6           0       -1.033821    2.474599   -0.220579
     12          6           0        3.720617    1.189164   -0.044879
     13          6           0        4.422040   -0.000343   -0.128223
     14          6           0        3.719978   -1.189617   -0.046695
     15          6           0        2.341707   -1.149597    0.130268
     16          6           0        1.542274   -2.426895    0.170604
     17          6           0        0.112836   -2.179758    0.555794
     18          6           0       -0.317872   -1.600231    1.774694
     19          6           0       -1.730784   -1.564643    1.761691
     20          6           0       -2.170733   -2.117131    0.546979
     21          6           0       -1.036571   -2.473957   -0.216188
     22          1           0        1.586219    2.884119   -0.820813
     23          1           0        2.018947    3.121501    0.877454
     24          1           0        0.311473    1.377108    2.622617
     25          1           0       -2.371881    1.305821    2.590071
     26          1           0       -3.198470    2.306387    0.259798
     27          1           0       -1.042583    2.983877   -1.178793
     28          1           0        4.225479    2.139219   -0.123812
     29          1           0        5.492775   -0.000525   -0.265614
     30          1           0        4.224354   -2.139805   -0.127103
     31          1           0        2.018903   -3.123883    0.869875
     32          1           0        1.581842   -2.880308   -0.826468
     33          1           0        0.318372   -1.374931    2.621813
     34          1           0       -2.364905   -1.301936    2.597741
     35          1           0       -3.199606   -2.303533    0.270708
     36          1           0       -1.048698   -2.983998   -1.173971
 ---------------------------------------------------------------------
 Rotational constants (GHZ):      0.4148517      0.2659368      0.2258763
 Leave Link  202 at Mon Sep 15 12:53:48 2025, MaxMem=    33554432 cpu:         0.0
 (Enter /appl/g09.shchoi/G09Files/g09/l601.exe)
 Leave Link  601 at Mon Sep 15 12:53:48 2025, MaxMem=    33554432 cpu:         0.0
 (Enter /appl/g09.shchoi/G09Files/g09/l9999.exe)
 1\1\GINC-MASTER\FOpt\RExternal='/home/rxn_grp/programs/xtb-gaussian'\Z
 DO\C17H15Cl2N1Zr1\RXN_GRP\15-Sep-2025\0\\#p external='/home/rxn_grp/pr
 ograms/xtb-gaussian' /sdd opt(nomicro)\\R\\0,1\Zr,0.0000069438,0.22062
 12574,-0.2520985974\Cl,1.0860085838,0.8982907533,-2.2611241933\Cl,2.09
 76333795,0.7341571332,0.7221386798\N,-0.0728393943,-0.2111257357,2.232
 6716355\C,-0.2524507375,0.8159945835,3.0677474424\C,-0.7561965882,2.10
 91951413,2.4794148629\C,-1.180059172,1.9453434394,1.0489562131\C,-2.20
 18738492,1.0767614929,0.592272397\C,-2.3108104335,1.2351223714,-0.8080
 964355\C,-1.3662328011,2.1927723726,-1.2143961801\C,-0.6437594012,2.61
 58310217,-0.0764176532\C,0.0359098152,0.7277787679,4.4248272839\C,0.54
 23367276,-0.4568938777,4.9287627325\C,0.757352402,-1.5088101916,4.0563
 232789\C,0.4448619276,-1.3457336238,2.7115914374\C,0.7162071128,-2.454
 7461486,1.7273783278\C,0.138672263,-2.1554229116,0.3747514864\C,-1.233
 9428821,-1.9358784464,0.1012439409\C,-1.3682880305,-1.712884401,-1.287
 9933092\C,-0.0915735704,-1.794035697,-1.8691457406\C,0.8491681415,-2.0
 39297041,-0.8440000246\H,0.0535208604,2.8452232458,2.5415545807\H,-1.5
 870760315,2.4794084686,3.0914043539\H,-2.8783521283,0.51594411,1.22555
 73025\H,-3.0840290845,0.8112968517,-1.4347045064\H,-1.2565973693,2.591
 1822915,-2.2138427952\H,0.1099304309,3.3962821993,-0.0549535824\H,-0.1
 281515854,1.5797796798,5.0658410491\H,0.7756669608,-0.5545399914,5.978
 2254438\H,1.169627157,-2.4434597125,4.4029877889\H,0.3098637636,-3.391
 9890051,2.1253824251\H,1.8026888348,-2.5738677932,1.6457155751\H,-2.04
 4201317,-2.0730000369,0.8068328892\H,-2.3015643286,-1.644615961,-1.830
 6156646\H,0.1278385675,-1.7477135369,-2.9271456633\H,1.9105564695,-2.2
 172069441,-0.9834310994\\Version=ES64L-G09RevD.01\HF=-57.9163336\RMSD=
 0.000e+00\RMSF=1.586e-06\Dipole=-1.8199793,-1.0375746,2.7655141\PG=C01
  [X(C17H15Cl2N1Zr1)]\\@


 LIFE CAN ONLY BE UNDERSTOOD BACKWARD, BUT MUST
 BE LIVED FORWARD. -- KIRKEGAARD
 Job cpu time:       0 days  0 hours  0 minutes  4.9 seconds.
 File lengths (MBytes):  RWF=     13 Int=      0 D2E=      0 Chk=      5 Scr=      1
 Normal termination of Gaussian 09 at Mon Sep 15 12:53:48 2025.
