 Entering Gaussian System, Link 0=g09
 Input=final_relax_4.com
 Output=final_relax_4.log
 Initial command:
 /appl/g09.shchoi/G09Files/g09/l1.exe "/home/rxn_grp/scratch/Gau-2486619.inp" -scrdir="/home/rxn_grp/scratch/"
 Entering Link 1 = /appl/g09.shchoi/G09Files/g09/l1.exe PID=   2486621.
  
 Copyright (c) 1988,1990,1992,1993,1995,1998,2003,2009,2013,
            Gaussian, Inc.  All Rights Reserved.
  
 This is part of the Gaussian(R) 09 program.  It is based on
 the Gaussian(R) 03 system (copyright 2003, Gaussian, Inc.),
 the Gaussian(R) 98 system (copyright 1998, Gaussian, Inc.),
 the Gaussian(R) 94 system (copyright 1995, Gaussian, Inc.),
 the Gaussian 92(TM) system (copyright 1992, Gaussian, Inc.),
 the Gaussian 90(TM) system (copyright 1990, Gaussian, Inc.),
 the Gaussian 88(TM) system (copyright 1988, Gaussian, Inc.),
 the Gaussian 86(TM) system (copyright 1986, Carnegie Mellon
 University), and the Gaussian 82(TM) system (copyright 1983,
 Carnegie Mellon University). Gaussian is a federally registered
 trademark of Gaussian, Inc.
  
 This software contains proprietary and confidential information,
 including trade secrets, belonging to Gaussian, Inc.
  
 This software is provided under written license and may be
 used, copied, transmitted, or stored only in accord with that
 written license.
  
 The following legend is applicable only to US Government
 contracts under FAR:
  
                    RESTRICTED RIGHTS LEGEND
  
 Use, reproduction and disclosure by the US Government is
 subject to restrictions as set forth in subparagraphs (a)
 and (c) of the Commercial Computer Software - Restricted
 Rights clause in FAR 52.227-19.
  
 Gaussian, Inc.
 340 Quinnipiac St., Bldg. 40, Wallingford CT 06492
  
  
 ---------------------------------------------------------------
 Warning -- This program may not be used in any manner that
 competes with the business of Gaussian, Inc. or will provide
 assistance to any competitor of Gaussian, Inc.  The licensee
 of this program is prohibited from giving any competitor of
 Gaussian, Inc. access to this program.  By using this program,
 the user acknowledges that Gaussian, Inc. is engaged in the
 business of creating and licensing software in the field of
 computational chemistry and represents and warrants to the
 licensee that it is not a competitor of Gaussian, Inc. and that
 it will not use this program in any manner prohibited above.
 ---------------------------------------------------------------
  

 Cite this work as:
 Gaussian 09, Revision D.01,
 M. J. Frisch, G. W. Trucks, H. B. Schlegel, G. E. Scuseria, 
 M. A. Robb, J. R. Cheeseman, G. Scalmani, V. Barone, B. Mennucci, 
 G. A. Petersson, H. Nakatsuji, M. Caricato, X. Li, H. P. Hratchian, 
 A. F. Izmaylov, J. Bloino, G. Zheng, J. L. Sonnenberg, M. Hada, 
 M. Ehara, K. Toyota, R. Fukuda, J. Hasegawa, M. Ishida, T. Nakajima, 
 Y. Honda, O. Kitao, H. Nakai, T. Vreven, J. A. Montgomery, Jr., 
 J. E. Peralta, F. Ogliaro, M. Bearpark, J. J. Heyd, E. Brothers, 
 K. N. Kudin, V. N. Staroverov, T. Keith, R. Kobayashi, J. Normand, 
 K. Raghavachari, A. Rendell, J. C. Burant, S. S. Iyengar, J. Tomasi, 
 M. Cossi, N. Rega, J. M. Millam, M. Klene, J. E. Knox, J. B. Cross, 
 V. Bakken, C. Adamo, J. Jaramillo, R. Gomperts, R. E. Stratmann, 
 O. Yazyev, A. J. Austin, R. Cammi, C. Pomelli, J. W. Ochterski, 
 R. L. Martin, K. Morokuma, V. G. Zakrzewski, G. A. Voth, 
 P. Salvador, J. J. Dannenberg, S. Dapprich, A. D. Daniels, 
 O. Farkas, J. B. Foresman, J. V. Ortiz, J. Cioslowski, 
 and D. J. Fox, Gaussian, Inc., Wallingford CT, 2013.
 
 ******************************************
 Gaussian 09:  ES64L-G09RevD.01 24-Apr-2013
                15-Sep-2025 
 ******************************************
 -------------------------------------------------------------------
 #p external='/home/rxn_grp/programs/xtb-gaussian' /sdd opt(nomicro)
 -------------------------------------------------------------------
 1/14=-1,18=20,19=15,26=1,38=1/1,3;
 2/9=110,12=2,17=6,18=5,40=1/2;
 3/5=17,6=7,11=9,16=1,25=1,30=1,41=9900000,43=2,71=1/1;
 4/20=17,22=1,24=3,113=1,114=1/2;
 6/7=2,8=2,9=2,10=2/1;
 7/44=-1/16;
 1/14=-1,18=20,19=15,26=1/3(2);
 2/9=110/2;
 99//99;
 2/9=110/2;
 3/5=17,6=7,11=9,16=1,25=1,30=1,41=9900000,43=2,71=1/1;
 4/16=2,20=17,22=1,24=3,113=1,114=1/2;
 7/44=-1/16;
 1/14=-1,18=20,19=15,26=1/3(-4);
 2/9=110/2;
 6/7=2,8=2,9=2,10=2/1;
 99//99;
 Leave Link    1 at Mon Sep 15 12:51:04 2025, MaxMem=           0 cpu:         0.0
 (Enter /appl/g09.shchoi/G09Files/g09/l101.exe)
 -
 R
 -
 Symbolic Z-matrix:
 Charge =  0 Multiplicity = 1
 Zr                    0.        0.        0. 
 Cl                   -1.57402  -0.12523  -1.92921 
 Cl                    2.04445  -0.77802  -1.19581 
 N                     0.01769  -0.06202   2.21306 
 C                     0.08536   1.128     2.84734 
 C                    -1.00916   2.04462   2.43194 
 C                    -0.79073   2.27877   0.98847 
 C                     0.29779   2.89438   0.48173 
 C                     0.13627   3.01664  -0.94345 
 C                    -1.13007   2.68227  -1.25339 
 C                    -1.79666   2.25579  -0.04135 
 C                     1.16747   1.53515   3.6214 
 C                     2.20583   0.63641   3.826 
 C                     2.10445  -0.64266   3.29387 
 C                     0.99033  -0.95729   2.51968 
 C                     0.75469  -2.36927   2.06603 
 C                    -0.18422  -2.42899   0.92252 
 C                    -1.61463  -2.22727   0.96613 
 C                    -1.99636  -2.24777  -0.3219 
 C                    -0.92196  -2.81778  -1.13027 
 C                     0.14522  -3.03748  -0.34452 
 H                    -1.98017   1.57145   2.61725 
 H                    -0.9927    2.98332   2.99778 
 H                     1.18608   3.20206   1.01099 
 H                     0.89041   3.38054  -1.62408 
 H                    -1.58136   2.70189  -2.23295 
 H                    -2.77261   1.80878   0.02038 
 H                     1.22528   2.54429   4.01412 
 H                     3.08035   0.92517   4.40085 
 H                     2.87624  -1.38049   3.48451 
 H                     1.71317  -2.82603   1.79134 
 H                     0.35121  -2.94391   2.90882 
 H                    -2.19351  -1.94018   1.82713 
 H                    -2.99203  -2.05991  -0.69267 
 H                    -1.03449  -3.11782  -2.16078 
 H                     1.07575  -3.50694  -0.61499 
 
 NAtoms=     36 NQM=       36 NQMF=       0 NMMI=      0 NMMIF=      0
                NMic=       0 NMicF=      0.
                    Isotopes and Nuclear Properties:
 (Nuclear quadrupole moments (NQMom) in fm**2, nuclear magnetic moments (NMagM)
  in nuclear magnetons)

  Atom         1           2           3           4           5           6           7           8           9          10
 IAtWgt=          90          35          35          14          12          12          12          12          12          12
 AtmWgt=  89.9043000  34.9688527  34.9688527  14.0030740  12.0000000  12.0000000  12.0000000  12.0000000  12.0000000  12.0000000
 NucSpn=           0           3           3           2           0           0           0           0           0           0
 AtZEff=   0.0000000   0.0000000   0.0000000   0.0000000   0.0000000   0.0000000   0.0000000   0.0000000   0.0000000   0.0000000
 NQMom=    0.0000000  -8.1650000  -8.1650000   2.0440000   0.0000000   0.0000000   0.0000000   0.0000000   0.0000000   0.0000000
 NMagM=    0.0000000   0.8218740   0.8218740   0.4037610   0.0000000   0.0000000   0.0000000   0.0000000   0.0000000   0.0000000
 AtZNuc=  40.0000000  17.0000000  17.0000000   7.0000000   6.0000000   6.0000000   6.0000000   6.0000000   6.0000000   6.0000000

  Atom        11          12          13          14          15          16          17          18          19          20
 IAtWgt=          12          12          12          12          12          12          12          12          12          12
 AtmWgt=  12.0000000  12.0000000  12.0000000  12.0000000  12.0000000  12.0000000  12.0000000  12.0000000  12.0000000  12.0000000
 NucSpn=           0           0           0           0           0           0           0           0           0           0
 AtZEff=   0.0000000   0.0000000   0.0000000   0.0000000   0.0000000   0.0000000   0.0000000   0.0000000   0.0000000   0.0000000
 NQMom=    0.0000000   0.0000000   0.0000000   0.0000000   0.0000000   0.0000000   0.0000000   0.0000000   0.0000000   0.0000000
 NMagM=    0.0000000   0.0000000   0.0000000   0.0000000   0.0000000   0.0000000   0.0000000   0.0000000   0.0000000   0.0000000
 AtZNuc=   6.0000000   6.0000000   6.0000000   6.0000000   6.0000000   6.0000000   6.0000000   6.0000000   6.0000000   6.0000000

  Atom        21          22          23          24          25          26          27          28          29          30
 IAtWgt=          12           1           1           1           1           1           1           1           1           1
 AtmWgt=  12.0000000   1.0078250   1.0078250   1.0078250   1.0078250   1.0078250   1.0078250   1.0078250   1.0078250   1.0078250
 NucSpn=           0           1           1           1           1           1           1           1           1           1
 AtZEff=   0.0000000   0.0000000   0.0000000   0.0000000   0.0000000   0.0000000   0.0000000   0.0000000   0.0000000   0.0000000
 NQMom=    0.0000000   0.0000000   0.0000000   0.0000000   0.0000000   0.0000000   0.0000000   0.0000000   0.0000000   0.0000000
 NMagM=    0.0000000   2.7928460   2.7928460   2.7928460   2.7928460   2.7928460   2.7928460   2.7928460   2.7928460   2.7928460
 AtZNuc=   6.0000000   1.0000000   1.0000000   1.0000000   1.0000000   1.0000000   1.0000000   1.0000000   1.0000000   1.0000000

  Atom        31          32          33          34          35          36
 IAtWgt=           1           1           1           1           1           1
 AtmWgt=   1.0078250   1.0078250   1.0078250   1.0078250   1.0078250   1.0078250
 NucSpn=           1           1           1           1           1           1
 AtZEff=   0.0000000   0.0000000   0.0000000   0.0000000   0.0000000   0.0000000
 NQMom=    0.0000000   0.0000000   0.0000000   0.0000000   0.0000000   0.0000000
 NMagM=    2.7928460   2.7928460   2.7928460   2.7928460   2.7928460   2.7928460
 AtZNuc=   1.0000000   1.0000000   1.0000000   1.0000000   1.0000000   1.0000000
 Leave Link  101 at Mon Sep 15 12:51:04 2025, MaxMem=    33554432 cpu:         0.0
 (Enter /appl/g09.shchoi/G09Files/g09/l103.exe)

 GradGradGradGradGradGradGradGradGradGradGradGradGradGradGradGradGradGrad
 Berny optimization.
 Initialization pass.
                           ----------------------------
                           !    Initial Parameters    !
                           ! (Angstroms and Degrees)  !
 --------------------------                            --------------------------
 ! Name  Definition              Value          Derivative Info.                !
 --------------------------------------------------------------------------------
 ! R1    R(1,2)                  2.493          estimate D2E/DX2                !
 ! R2    R(1,3)                  2.493          estimate D2E/DX2                !
 ! R3    R(1,4)                  2.214          estimate D2E/DX2                !
 ! R4    R(1,7)                  2.6067         estimate D2E/DX2                !
 ! R5    R(1,17)                 2.6048         estimate D2E/DX2                !
 ! R6    R(4,5)                  1.3502         estimate D2E/DX2                !
 ! R7    R(4,15)                 1.357          estimate D2E/DX2                !
 ! R8    R(5,6)                  1.4868         estimate D2E/DX2                !
 ! R9    R(5,12)                 1.3914         estimate D2E/DX2                !
 ! R10   R(6,7)                  1.4786         estimate D2E/DX2                !
 ! R11   R(6,22)                 1.0959         estimate D2E/DX2                !
 ! R12   R(6,23)                 1.0962         estimate D2E/DX2                !
 ! R13   R(7,8)                  1.3493         estimate D2E/DX2                !
 ! R14   R(7,11)                 1.4398         estimate D2E/DX2                !
 ! R15   R(8,9)                  1.4395         estimate D2E/DX2                !
 ! R16   R(8,24)                 1.0788         estimate D2E/DX2                !
 ! R17   R(9,10)                 1.3459         estimate D2E/DX2                !
 ! R18   R(9,25)                 1.0791         estimate D2E/DX2                !
 ! R19   R(10,11)                1.4475         estimate D2E/DX2                !
 ! R20   R(10,26)                1.0787         estimate D2E/DX2                !
 ! R21   R(11,27)                1.0752         estimate D2E/DX2                !
 ! R22   R(12,13)                1.3884         estimate D2E/DX2                !
 ! R23   R(12,28)                1.0844         estimate D2E/DX2                !
 ! R24   R(13,14)                1.389          estimate D2E/DX2                !
 ! R25   R(13,29)                1.0856         estimate D2E/DX2                !
 ! R26   R(14,15)                1.3927         estimate D2E/DX2                !
 ! R27   R(14,30)                1.0846         estimate D2E/DX2                !
 ! R28   R(15,16)                1.5017         estimate D2E/DX2                !
 ! R29   R(16,17)                1.4808         estimate D2E/DX2                !
 ! R30   R(16,31)                1.0967         estimate D2E/DX2                !
 ! R31   R(16,32)                1.097          estimate D2E/DX2                !
 ! R32   R(17,18)                1.4452         estimate D2E/DX2                !
 ! R33   R(17,21)                1.4437         estimate D2E/DX2                !
 ! R34   R(18,19)                1.3436         estimate D2E/DX2                !
 ! R35   R(18,33)                1.0765         estimate D2E/DX2                !
 ! R36   R(19,20)                1.4604         estimate D2E/DX2                !
 ! R37   R(19,34)                1.0789         estimate D2E/DX2                !
 ! R38   R(20,21)                1.3433         estimate D2E/DX2                !
 ! R39   R(20,35)                1.0792         estimate D2E/DX2                !
 ! R40   R(21,36)                1.0768         estimate D2E/DX2                !
 ! A1    A(2,1,3)               97.5222         estimate D2E/DX2                !
 ! A2    A(2,1,4)              141.0011         estimate D2E/DX2                !
 ! A3    A(2,1,7)               98.3855         estimate D2E/DX2                !
 ! A4    A(2,1,17)             100.5196         estimate D2E/DX2                !
 ! A5    A(3,1,4)              117.6563         estimate D2E/DX2                !
 ! A6    A(3,1,7)              134.7057         estimate D2E/DX2                !
 ! A7    A(3,1,17)              86.3799         estimate D2E/DX2                !
 ! A8    A(4,1,7)               69.3827         estimate D2E/DX2                !
 ! A9    A(4,1,17)              67.693          estimate D2E/DX2                !
 ! A10   A(7,1,17)             131.2564         estimate D2E/DX2                !
 ! A11   A(1,4,5)              116.4411         estimate D2E/DX2                !
 ! A12   A(1,4,15)             104.481          estimate D2E/DX2                !
 ! A13   A(5,4,15)             116.0652         estimate D2E/DX2                !
 ! A14   A(4,5,6)              112.0373         estimate D2E/DX2                !
 ! A15   A(4,5,12)             123.9336         estimate D2E/DX2                !
 ! A16   A(6,5,12)             123.1989         estimate D2E/DX2                !
 ! A17   A(5,6,7)              105.1672         estimate D2E/DX2                !
 ! A18   A(5,6,22)             109.8047         estimate D2E/DX2                !
 ! A19   A(5,6,23)             111.8794         estimate D2E/DX2                !
 ! A20   A(7,6,22)             111.3666         estimate D2E/DX2                !
 ! A21   A(7,6,23)             111.4761         estimate D2E/DX2                !
 ! A22   A(22,6,23)            107.2016         estimate D2E/DX2                !
 ! A23   A(1,7,6)              106.0555         estimate D2E/DX2                !
 ! A24   A(1,7,8)               90.671          estimate D2E/DX2                !
 ! A25   A(1,7,11)              85.7995         estimate D2E/DX2                !
 ! A26   A(6,7,8)              123.9226         estimate D2E/DX2                !
 ! A27   A(6,7,11)             126.3383         estimate D2E/DX2                !
 ! A28   A(8,7,11)             107.5953         estimate D2E/DX2                !
 ! A29   A(7,8,9)              108.6665         estimate D2E/DX2                !
 ! A30   A(7,8,24)             127.5987         estimate D2E/DX2                !
 ! A31   A(9,8,24)             123.6329         estimate D2E/DX2                !
 ! A32   A(8,9,10)             108.2072         estimate D2E/DX2                !
 ! A33   A(8,9,25)             125.0792         estimate D2E/DX2                !
 ! A34   A(10,9,25)            126.5899         estimate D2E/DX2                !
 ! A35   A(9,10,11)            108.28           estimate D2E/DX2                !
 ! A36   A(9,10,26)            126.7434         estimate D2E/DX2                !
 ! A37   A(11,10,26)           124.9645         estimate D2E/DX2                !
 ! A38   A(7,11,10)            105.8111         estimate D2E/DX2                !
 ! A39   A(7,11,27)            126.8509         estimate D2E/DX2                !
 ! A40   A(10,11,27)           126.0545         estimate D2E/DX2                !
 ! A41   A(5,12,13)            118.3075         estimate D2E/DX2                !
 ! A42   A(5,12,28)            121.0143         estimate D2E/DX2                !
 ! A43   A(13,12,28)           120.6059         estimate D2E/DX2                !
 ! A44   A(12,13,14)           119.0131         estimate D2E/DX2                !
 ! A45   A(12,13,29)           120.5498         estimate D2E/DX2                !
 ! A46   A(14,13,29)           120.4348         estimate D2E/DX2                !
 ! A47   A(13,14,15)           118.6443         estimate D2E/DX2                !
 ! A48   A(13,14,30)           120.4735         estimate D2E/DX2                !
 ! A49   A(15,14,30)           120.8811         estimate D2E/DX2                !
 ! A50   A(4,15,14)            123.3618         estimate D2E/DX2                !
 ! A51   A(4,15,16)            116.0777         estimate D2E/DX2                !
 ! A52   A(14,15,16)           120.3904         estimate D2E/DX2                !
 ! A53   A(15,16,17)           111.7592         estimate D2E/DX2                !
 ! A54   A(15,16,31)           109.2764         estimate D2E/DX2                !
 ! A55   A(15,16,32)           108.5526         estimate D2E/DX2                !
 ! A56   A(17,16,31)           110.1169         estimate D2E/DX2                !
 ! A57   A(17,16,32)           109.8135         estimate D2E/DX2                !
 ! A58   A(31,16,32)           107.2009         estimate D2E/DX2                !
 ! A59   A(1,17,16)            101.0138         estimate D2E/DX2                !
 ! A60   A(1,17,18)             87.1645         estimate D2E/DX2                !
 ! A61   A(1,17,21)             93.7884         estimate D2E/DX2                !
 ! A62   A(16,17,18)           126.7719         estimate D2E/DX2                !
 ! A63   A(16,17,21)           123.3709         estimate D2E/DX2                !
 ! A64   A(18,17,21)           108.1299         estimate D2E/DX2                !
 ! A65   A(17,18,19)           104.4861         estimate D2E/DX2                !
 ! A66   A(17,18,33)           126.4126         estimate D2E/DX2                !
 ! A67   A(19,18,33)           128.1733         estimate D2E/DX2                !
 ! A68   A(18,19,20)           109.122          estimate D2E/DX2                !
 ! A69   A(18,19,34)           126.0835         estimate D2E/DX2                !
 ! A70   A(20,19,34)           123.8258         estimate D2E/DX2                !
 ! A71   A(19,20,21)           108.937          estimate D2E/DX2                !
 ! A72   A(19,20,35)           124.0813         estimate D2E/DX2                !
 ! A73   A(21,20,35)           126.5774         estimate D2E/DX2                !
 ! A74   A(17,21,20)           105.2563         estimate D2E/DX2                !
 ! A75   A(17,21,36)           126.972          estimate D2E/DX2                !
 ! A76   A(20,21,36)           127.6557         estimate D2E/DX2                !
 ! D1    D(2,1,4,5)            -99.5408         estimate D2E/DX2                !
 ! D2    D(2,1,4,15)           131.0197         estimate D2E/DX2                !
 ! D3    D(3,1,4,5)            108.5726         estimate D2E/DX2                !
 ! D4    D(3,1,4,15)           -20.867          estimate D2E/DX2                !
 ! D5    D(7,1,4,5)            -22.0746         estimate D2E/DX2                !
 ! D6    D(7,1,4,15)          -151.5141         estimate D2E/DX2                !
 ! D7    D(17,1,4,5)          -178.4081         estimate D2E/DX2                !
 ! D8    D(17,1,4,15)           52.1523         estimate D2E/DX2                !
 ! D9    D(2,1,7,6)            130.2217         estimate D2E/DX2                !
 ! D10   D(2,1,7,8)           -104.0364         estimate D2E/DX2                !
 ! D11   D(2,1,7,11)             3.5573         estimate D2E/DX2                !
 ! D12   D(3,1,7,6)           -120.3829         estimate D2E/DX2                !
 ! D13   D(3,1,7,8)              5.359          estimate D2E/DX2                !
 ! D14   D(3,1,7,11)           112.9527         estimate D2E/DX2                !
 ! D15   D(4,1,7,6)            -11.393          estimate D2E/DX2                !
 ! D16   D(4,1,7,8)            114.3488         estimate D2E/DX2                !
 ! D17   D(4,1,7,11)          -138.0574         estimate D2E/DX2                !
 ! D18   D(17,1,7,6)            18.2107         estimate D2E/DX2                !
 ! D19   D(17,1,7,8)           143.9526         estimate D2E/DX2                !
 ! D20   D(17,1,7,11)         -108.4537         estimate D2E/DX2                !
 ! D21   D(2,1,17,16)          179.6621         estimate D2E/DX2                !
 ! D22   D(2,1,17,18)          -53.3984         estimate D2E/DX2                !
 ! D23   D(2,1,17,21)           54.598          estimate D2E/DX2                !
 ! D24   D(3,1,17,16)           82.6738         estimate D2E/DX2                !
 ! D25   D(3,1,17,18)         -150.3867         estimate D2E/DX2                !
 ! D26   D(3,1,17,21)          -42.3903         estimate D2E/DX2                !
 ! D27   D(4,1,17,16)          -39.242          estimate D2E/DX2                !
 ! D28   D(4,1,17,18)           87.6975         estimate D2E/DX2                !
 ! D29   D(4,1,17,21)         -164.3061         estimate D2E/DX2                !
 ! D30   D(7,1,17,16)          -69.2261         estimate D2E/DX2                !
 ! D31   D(7,1,17,18)           57.7134         estimate D2E/DX2                !
 ! D32   D(7,1,17,21)          165.7097         estimate D2E/DX2                !
 ! D33   D(1,4,5,6)             55.5514         estimate D2E/DX2                !
 ! D34   D(1,4,5,12)          -114.2857         estimate D2E/DX2                !
 ! D35   D(15,4,5,6)           179.2031         estimate D2E/DX2                !
 ! D36   D(15,4,5,12)            9.3659         estimate D2E/DX2                !
 ! D37   D(1,4,15,14)          121.141          estimate D2E/DX2                !
 ! D38   D(1,4,15,16)          -63.5908         estimate D2E/DX2                !
 ! D39   D(5,4,15,14)           -8.523          estimate D2E/DX2                !
 ! D40   D(5,4,15,16)          166.7452         estimate D2E/DX2                !
 ! D41   D(4,5,6,7)            -62.738          estimate D2E/DX2                !
 ! D42   D(4,5,6,22)            57.1848         estimate D2E/DX2                !
 ! D43   D(4,5,6,23)           176.0886         estimate D2E/DX2                !
 ! D44   D(12,5,6,7)           107.1862         estimate D2E/DX2                !
 ! D45   D(12,5,6,22)         -132.891          estimate D2E/DX2                !
 ! D46   D(12,5,6,23)          -13.9872         estimate D2E/DX2                !
 ! D47   D(4,5,12,13)           -4.1923         estimate D2E/DX2                !
 ! D48   D(4,5,12,28)          172.7348         estimate D2E/DX2                !
 ! D49   D(6,5,12,13)         -172.9208         estimate D2E/DX2                !
 ! D50   D(6,5,12,28)            4.0063         estimate D2E/DX2                !
 ! D51   D(5,6,7,1)             38.2259         estimate D2E/DX2                !
 ! D52   D(5,6,7,8)            -63.7933         estimate D2E/DX2                !
 ! D53   D(5,6,7,11)           134.9496         estimate D2E/DX2                !
 ! D54   D(22,6,7,1)           -80.6559         estimate D2E/DX2                !
 ! D55   D(22,6,7,8)           177.3249         estimate D2E/DX2                !
 ! D56   D(22,6,7,11)           16.0678         estimate D2E/DX2                !
 ! D57   D(23,6,7,1)           159.663          estimate D2E/DX2                !
 ! D58   D(23,6,7,8)            57.6437         estimate D2E/DX2                !
 ! D59   D(23,6,7,11)         -103.6134         estimate D2E/DX2                !
 ! D60   D(1,7,8,9)             73.3847         estimate D2E/DX2                !
 ! D61   D(1,7,8,24)          -103.0162         estimate D2E/DX2                !
 ! D62   D(6,7,8,9)           -176.6655         estimate D2E/DX2                !
 ! D63   D(6,7,8,24)             6.9337         estimate D2E/DX2                !
 ! D64   D(11,7,8,9)           -12.4213         estimate D2E/DX2                !
 ! D65   D(11,7,8,24)          171.1778         estimate D2E/DX2                !
 ! D66   D(1,7,11,10)          -79.2075         estimate D2E/DX2                !
 ! D67   D(1,7,11,27)           88.3922         estimate D2E/DX2                !
 ! D68   D(6,7,11,10)          173.9204         estimate D2E/DX2                !
 ! D69   D(6,7,11,27)          -18.4798         estimate D2E/DX2                !
 ! D70   D(8,7,11,10)           10.1637         estimate D2E/DX2                !
 ! D71   D(8,7,11,27)          177.7635         estimate D2E/DX2                !
 ! D72   D(7,8,9,10)            10.1448         estimate D2E/DX2                !
 ! D73   D(7,8,9,25)          -173.6806         estimate D2E/DX2                !
 ! D74   D(24,8,9,10)         -173.2799         estimate D2E/DX2                !
 ! D75   D(24,8,9,25)            2.8947         estimate D2E/DX2                !
 ! D76   D(8,9,10,11)           -3.4519         estimate D2E/DX2                !
 ! D77   D(8,9,10,26)          177.7661         estimate D2E/DX2                !
 ! D78   D(25,9,10,11)        -179.5529         estimate D2E/DX2                !
 ! D79   D(25,9,10,26)           1.6652         estimate D2E/DX2                !
 ! D80   D(9,10,11,7)           -3.8927         estimate D2E/DX2                !
 ! D81   D(9,10,11,27)        -171.6211         estimate D2E/DX2                !
 ! D82   D(26,10,11,7)         174.9163         estimate D2E/DX2                !
 ! D83   D(26,10,11,27)          7.1879         estimate D2E/DX2                !
 ! D84   D(5,12,13,14)          -2.2568         estimate D2E/DX2                !
 ! D85   D(5,12,13,29)         178.295          estimate D2E/DX2                !
 ! D86   D(28,12,13,14)       -179.1969         estimate D2E/DX2                !
 ! D87   D(28,12,13,29)          1.3549         estimate D2E/DX2                !
 ! D88   D(12,13,14,15)          2.977          estimate D2E/DX2                !
 ! D89   D(12,13,14,30)       -176.6602         estimate D2E/DX2                !
 ! D90   D(29,13,14,15)       -177.5742         estimate D2E/DX2                !
 ! D91   D(29,13,14,30)          2.7886         estimate D2E/DX2                !
 ! D92   D(13,14,15,4)           2.6018         estimate D2E/DX2                !
 ! D93   D(13,14,15,16)       -172.4707         estimate D2E/DX2                !
 ! D94   D(30,14,15,4)        -177.7626         estimate D2E/DX2                !
 ! D95   D(30,14,15,16)          7.1649         estimate D2E/DX2                !
 ! D96   D(4,15,16,17)          23.4518         estimate D2E/DX2                !
 ! D97   D(4,15,16,31)         145.5864         estimate D2E/DX2                !
 ! D98   D(4,15,16,32)         -97.8086         estimate D2E/DX2                !
 ! D99   D(14,15,16,17)       -161.1294         estimate D2E/DX2                !
 ! D100  D(14,15,16,31)        -38.9948         estimate D2E/DX2                !
 ! D101  D(14,15,16,32)         77.6102         estimate D2E/DX2                !
 ! D102  D(15,16,17,1)          20.8865         estimate D2E/DX2                !
 ! D103  D(15,16,17,18)        -73.8479         estimate D2E/DX2                !
 ! D104  D(15,16,17,21)        122.9382         estimate D2E/DX2                !
 ! D105  D(31,16,17,1)        -100.7646         estimate D2E/DX2                !
 ! D106  D(31,16,17,18)        164.501          estimate D2E/DX2                !
 ! D107  D(31,16,17,21)          1.2871         estimate D2E/DX2                !
 ! D108  D(32,16,17,1)         141.4138         estimate D2E/DX2                !
 ! D109  D(32,16,17,18)         46.6794         estimate D2E/DX2                !
 ! D110  D(32,16,17,21)       -116.5345         estimate D2E/DX2                !
 ! D111  D(1,17,18,19)          72.3732         estimate D2E/DX2                !
 ! D112  D(1,17,18,33)         -97.2877         estimate D2E/DX2                !
 ! D113  D(16,17,18,19)        174.0142         estimate D2E/DX2                !
 ! D114  D(16,17,18,33)          4.3532         estimate D2E/DX2                !
 ! D115  D(21,17,18,19)        -20.6874         estimate D2E/DX2                !
 ! D116  D(21,17,18,33)        169.6517         estimate D2E/DX2                !
 ! D117  D(1,17,21,20)         -70.5298         estimate D2E/DX2                !
 ! D118  D(1,17,21,36)         105.7768         estimate D2E/DX2                !
 ! D119  D(16,17,21,20)       -176.3653         estimate D2E/DX2                !
 ! D120  D(16,17,21,36)         -0.0587         estimate D2E/DX2                !
 ! D121  D(18,17,21,20)         17.7232         estimate D2E/DX2                !
 ! D122  D(18,17,21,36)       -165.9702         estimate D2E/DX2                !
 ! D123  D(17,18,19,20)         15.5535         estimate D2E/DX2                !
 ! D124  D(17,18,19,34)       -175.4215         estimate D2E/DX2                !
 ! D125  D(33,18,19,20)       -175.0333         estimate D2E/DX2                !
 ! D126  D(33,18,19,34)         -6.0082         estimate D2E/DX2                !
 ! D127  D(18,19,20,21)         -5.0108         estimate D2E/DX2                !
 ! D128  D(18,19,20,35)        168.1022         estimate D2E/DX2                !
 ! D129  D(34,19,20,21)       -174.3376         estimate D2E/DX2                !
 ! D130  D(34,19,20,35)         -1.2246         estimate D2E/DX2                !
 ! D131  D(19,20,21,17)         -8.0268         estimate D2E/DX2                !
 ! D132  D(19,20,21,36)        175.7004         estimate D2E/DX2                !
 ! D133  D(35,20,21,17)        179.0774         estimate D2E/DX2                !
 ! D134  D(35,20,21,36)          2.8046         estimate D2E/DX2                !
 --------------------------------------------------------------------------------
 Trust Radius=3.00D-01 FncErr=1.00D-07 GrdErr=1.00D-07
 Number of steps in this run=    216 maximum allowed number of steps=    216.
 GradGradGradGradGradGradGradGradGradGradGradGradGradGradGradGradGradGrad

 Leave Link  103 at Mon Sep 15 12:51:04 2025, MaxMem=    33554432 cpu:         0.0
 (Enter /appl/g09.shchoi/G09Files/g09/l202.exe)
                          Input orientation:                          
 ---------------------------------------------------------------------
 Center     Atomic      Atomic             Coordinates (Angstroms)
 Number     Number       Type             X           Y           Z
 ---------------------------------------------------------------------
      1         40           0        0.000000    0.000000    0.000000
      2         17           0       -1.574017   -0.125234   -1.929206
      3         17           0        2.044453   -0.778016   -1.195805
      4          7           0        0.017690   -0.062022    2.213060
      5          6           0        0.085360    1.128001    2.847340
      6          6           0       -1.009155    2.044618    2.431940
      7          6           0       -0.790734    2.278771    0.988471
      8          6           0        0.297785    2.894376    0.481726
      9          6           0        0.136273    3.016645   -0.943447
     10          6           0       -1.130066    2.682270   -1.253385
     11          6           0       -1.796657    2.255786   -0.041348
     12          6           0        1.167469    1.535147    3.621397
     13          6           0        2.205830    0.636413    3.826003
     14          6           0        2.104452   -0.642655    3.293875
     15          6           0        0.990334   -0.957294    2.519680
     16          6           0        0.754692   -2.369274    2.066026
     17          6           0       -0.184218   -2.428991    0.922517
     18          6           0       -1.614629   -2.227275    0.966130
     19          6           0       -1.996358   -2.247771   -0.321905
     20          6           0       -0.921957   -2.817785   -1.130266
     21          6           0        0.145224   -3.037482   -0.344524
     22          1           0       -1.980169    1.571450    2.617251
     23          1           0       -0.992703    2.983316    2.997781
     24          1           0        1.186082    3.202060    1.010986
     25          1           0        0.890410    3.380542   -1.624080
     26          1           0       -1.581360    2.701885   -2.232946
     27          1           0       -2.772608    1.808782    0.020382
     28          1           0        1.225280    2.544290    4.014122
     29          1           0        3.080350    0.925172    4.400847
     30          1           0        2.876243   -1.380485    3.484508
     31          1           0        1.713168   -2.826027    1.791344
     32          1           0        0.351206   -2.943912    2.908821
     33          1           0       -2.193511   -1.940176    1.827127
     34          1           0       -2.992033   -2.059912   -0.692667
     35          1           0       -1.034486   -3.117819   -2.160777
     36          1           0        1.075751   -3.506941   -0.614995
 ---------------------------------------------------------------------
                    Distance matrix (angstroms):
                    1          2          3          4          5
     1  Zr   0.000000
     2  Cl   2.493000   0.000000
     3  Cl   2.493000   3.749311   0.000000
     4  N    2.214000   4.438006   4.029985   0.000000
     5  C    3.063824   5.209560   4.880366   1.350202   0.000000
     6  C    3.333645   4.903766   5.518363   2.353774   1.486844
     7  C    2.606748   3.860779   4.706729   2.762694   2.355250
     8  C    2.949262   4.293516   4.399025   3.437479   2.959955
     9  C    3.163670   3.710554   4.254914   4.410872   4.235520
    10  C    3.169006   2.921627   4.696219   4.567793   4.550710
    11  C    2.884139   3.046774   5.029002   3.707621   3.627452
    12  C    4.102947   6.409509   5.415281   2.419990   1.391363
    13  C    4.461951   6.927466   5.219695   2.806662   2.386595
    14  C    3.961229   6.409324   4.492121   2.420717   2.722380
    15  C    2.871578   5.202000   3.866283   1.357042   2.296692
    16  C    3.232875   5.140086   3.851640   2.426561   3.645461
    17  C    2.604798   3.920608   3.489984   2.703481   4.053370
    18  C    2.915679   3.578156   4.490345   2.984563   4.205567
    19  C    3.023498   2.695729   4.387714   3.906397   5.076761
    20  C    3.172919   2.883282   3.600631   4.433396   5.692562
    21  C    3.060406   3.734729   3.071960   3.925668   5.248127
    22  H    3.638753   4.869698   6.021376   2.612096   2.125088
    23  H    4.344229   5.854589   6.399852   3.303145   2.151056
    24  H    3.561189   5.228169   4.631169   3.669380   2.980856
    25  H    3.854677   4.296158   4.336916   5.228435   5.071059
    26  H    3.845378   2.843398   5.131461   5.473858   5.573542
    27  H    3.310508   2.996320   5.601314   4.011672   4.077147
    28  H    4.907943   7.091232   6.233146   3.390422   2.160248
    29  H    5.450868   7.926920   5.941082   3.891124   3.380013
    30  H    4.724438   7.119605   4.791678   3.395033   3.806247
    31  H    3.759027   5.651757   3.636916   3.269894   4.404455
    32  H    4.153457   5.920975   4.940258   2.983388   4.081046
    33  H    3.451690   4.217562   5.333767   2.926741   3.955730
    34  H    3.698011   2.698663   5.221360   4.636081   5.671401
    35  H    3.931910   3.049637   3.985689   5.438329   6.660501
    36  H    3.719421   4.492701   2.953431   4.580923   5.869525
                    6          7          8          9         10
     6  C    0.000000
     7  C    1.478559   0.000000
     8  C    2.496702   1.349309   0.000000
     9  C    3.694602   2.266299   1.439498   0.000000
    10  C    3.742037   2.303015   2.257069   1.345913   0.000000
    11  C    2.604209   1.439770   2.251242   2.264709   1.447503
    12  C    2.532205   3.364496   3.530070   4.908769   5.509815
    13  C    3.776584   4.441658   4.463544   5.718062   6.412014
    14  C    4.202252   4.715053   4.866500   5.934569   6.495754
    15  C    3.607926   3.998614   4.412283   5.339931   5.654958
    16  C    4.767335   5.015355   5.515866   6.200604   6.331580
    17  C    4.792917   4.747129   5.363288   5.765370   5.635085
    18  C    4.556782   4.580802   5.488468   5.849003   5.409684
    19  C    5.194501   4.864175   5.687758   5.713887   5.091505
    20  C    6.028256   5.520973   6.059296   5.932564   5.505368
    21  C    5.905005   5.560166   5.991069   6.083687   5.930259
    22  H    1.095945   2.137284   3.391118   4.387082   4.115631
    23  H    1.096175   2.138808   2.829100   4.099876   4.264026
    24  H    2.859694   2.181919   1.078822   2.226272   3.280564
    25  H    4.673793   3.296296   2.240977   1.079076   2.169637
    26  H    4.745585   3.343896   3.307216   2.170747   1.078698
    27  H    2.996831   2.255196   3.289174   3.293856   2.254641
    28  H    2.783105   3.645460   3.668874   5.097701   5.771770
    29  H    4.674806   5.334963   5.194222   6.450065   7.265352
    30  H    5.285409   5.750398   5.825769   6.815349   7.416477
    31  H    5.616456   5.742220   6.036672   6.640971   6.906207
    32  H    5.192632   5.680510   6.322915   7.100311   7.153465
    33  H    4.200842   4.524449   5.602638   6.137919   5.655747
    34  H    5.526494   5.147438   6.061937   5.968301   5.125390
    35  H    6.909736   6.253028   6.701064   6.362721   5.871417
    36  H    6.667117   6.287235   6.541015   6.599066   6.601478
                   11         12         13         14         15
    11  C    0.000000
    12  C    4.766662   0.000000
    13  C    5.796437   1.388445   0.000000
    14  C    5.894347   2.393330   1.389048   0.000000
    15  C    4.964883   2.730827   2.392449   1.392707   0.000000
    16  C    5.686966   4.223039   3.773258   2.512106   1.501671
    17  C    5.047389   4.982509   4.851728   3.748645   2.469088
    18  C    4.598476   5.380179   5.565563   4.664866   3.288191
    19  C    4.516705   6.314262   6.571305   5.697974   4.319753
    20  C    5.262315   6.774365   6.802878   5.784753   4.521105
    21  C    5.646371   6.138604   5.927639   4.776161   3.639377
    22  H    2.751389   3.304127   4.456228   4.695126   3.902301
    23  H    3.226755   2.674403   4.052717   4.777835   4.437276
    24  H    3.301450   3.097288   3.942937   4.564737   4.428848
    25  H    3.315184   5.567520   6.242113   6.468871   5.999796
    26  H    2.246877   6.571961   7.437731   7.437534   6.526151
    27  H    1.075222   5.344753   6.375111   6.364826   5.296923
    28  H    5.065785   1.084411   2.153337   3.383537   3.814400
    29  H    6.729698   2.153770   1.085639   2.153102   3.383879
    30  H    6.891308   3.382241   2.152662   1.084617   2.160240
    31  H    6.442240   4.760957   4.046115   2.679144   2.131930
    32  H    6.352455   4.608255   4.135164   2.918547   2.122868
    33  H    4.610292   5.156884   5.476177   4.723070   3.403315
    34  H    4.525306   6.988351   7.396373   6.623843   5.233946
    35  H    5.826536   7.741591   7.774024   6.762587   5.538451
    36  H    6.464427   6.586203   6.177939   4.953950   4.041557
                   16         17         18         19         20
    16  C    0.000000
    17  C    1.480787   0.000000
    18  C    2.616030   1.445222   0.000000
    19  C    3.644894   2.205738   1.343567   0.000000
    20  C    3.637114   2.215703   2.285470   1.460377   0.000000
    21  C    2.574627   1.443672   2.339088   2.282658   1.343329
    22  H    4.828314   4.701180   4.158140   4.819268   5.867629
    23  H    5.707168   5.852643   5.627135   6.276298   7.120291
    24  H    5.686736   5.796057   6.109310   6.450207   6.728099
    25  H    6.833424   6.433558   6.665735   6.458096   6.476711
    26  H    7.046627   6.183433   5.876377   5.321973   5.667227
    27  H    5.838035   5.047012   4.304081   4.144315   5.114100
    28  H    5.306566   6.023141   6.334285   7.221076   7.734805
    29  H    4.659770   5.831517   6.616497   7.625282   7.785975
    30  H    2.736928   4.126691   5.217970   6.243653   6.147219
    31  H    1.096700   2.124281   3.480476   4.308223   3.934433
    32  H    1.096956   2.120666   2.855193   4.053796   4.236872
    33  H    2.988828   2.257104   1.076497   2.179868   3.336648
    34  H    4.663050   3.260194   2.162605   1.078946   2.247460
    35  H    4.650520   3.271719   3.302602   2.250251   1.079183
    36  H    2.930058   2.261292   3.372780   3.333056   2.175150
                   21         22         23         24         25
    21  C    0.000000
    22  H    5.876365   0.000000
    23  H    6.979677   1.764443   0.000000
    24  H    6.469365   3.906933   2.956740   0.000000
    25  H    6.586623   5.431568   5.006546   2.657602   0.000000
    26  H    6.283913   4.996133   5.271264   4.293251   2.634566
    27  H    5.668613   2.725438   3.662307   4.312046   4.311889
    28  H    7.163833   3.629404   2.478939   3.074577   5.709709
    29  H    6.843694   5.404419   4.774338   4.501514   6.864723
    30  H    4.986541   5.748982   5.852214   5.474913   7.260068
    31  H    2.658025   5.801780   6.521172   6.101197   7.131869
    32  H    3.261202   5.090070   6.078325   6.486275   7.799786
    33  H    3.374882   3.605735   5.201263   6.207279   7.052052
    34  H    3.304425   5.016594   6.561317   6.931625   6.748292
    35  H    2.167243   6.761147   7.989763   7.411603   6.798674
    36  H    1.076767   6.751008   7.710647   6.904105   6.963478
                   26         27         28         29         30
    26  H    0.000000
    27  H    2.700776   0.000000
    28  H    6.850396   5.698599   0.000000
    29  H    8.300329   7.363854   2.492465   0.000000
    30  H    8.320171   7.353986   4.290691   2.489457   0.000000
    31  H    7.589903   6.688792   5.832588   4.769716   2.511800
    32  H    7.877030   6.378824   5.666221   4.964291   3.025150
    33  H    6.197391   4.201710   6.048265   6.530533   5.363074
    34  H    5.199728   3.939972   7.819097   8.469265   7.235128
    35  H    5.845788   5.661265   8.677292   8.736851   7.083881
    36  H    6.944604   6.593214   7.620268   6.987182   4.956764
                   31         32         33         34         35
    31  H    0.000000
    32  H    1.765670   0.000000
    33  H    4.006014   2.941621   0.000000
    34  H    5.375515   4.992937   2.646004   0.000000
    35  H    4.822240   5.258442   4.316661   2.665803   0.000000
    36  H    2.580777   3.641325   4.371131   4.318193   2.644609
                   36
    36  H    0.000000
 Stoichiometry    C17H15Cl2NZr
 Framework group  C1[X(C17H15Cl2NZr)]
 Deg. of freedom   102
 Full point group                 C1      NOp   1
 Largest Abelian subgroup         C1      NOp   1
 Largest concise Abelian subgroup C1      NOp   1
                         Standard orientation:                         
 ---------------------------------------------------------------------
 Center     Atomic      Atomic             Coordinates (Angstroms)
 Number     Number       Type             X           Y           Z
 ---------------------------------------------------------------------
      1         40           0        0.397933    0.195338    0.239927
      2         17           0        2.583614    1.267047   -0.297927
      3         17           0        1.013531   -0.691568    2.487033
      4          7           0       -1.387825   -0.661658   -0.749227
      5          6           0       -2.474400    0.136287   -0.824607
      6          6           0       -2.170508    1.431342   -1.488828
      7          6           0       -1.175095    2.089606   -0.615916
      8          6           0       -1.424829    2.476933    0.652251
      9          6           0       -0.259836    3.147744    1.166991
     10          6           0        0.590760    3.357052    0.145149
     11          6           0        0.029701    2.751585   -1.043921
     12          6           0       -3.672814   -0.119085   -0.165455
     13          6           0       -3.792981   -1.305112    0.546358
     14          6           0       -2.737273   -2.207774    0.534667
     15          6           0       -1.569855   -1.861033   -0.141010
     16          6           0       -0.470311   -2.867366   -0.323527
     17          6           0        0.820660   -2.217517   -0.645740
     18          6           0        1.194634   -1.612945   -1.904033
     19          6           0        2.390210   -1.048998   -1.663755
     20          6           0        2.934478   -1.592109   -0.422182
     21          6           0        2.018657   -2.398732    0.139214
     22          1           0       -1.764605    1.248748   -2.490327
     23          1           0       -3.068173    2.048602   -1.610438
     24          1           0       -2.309727    2.282171    1.237810
     25          1           0       -0.134978    3.479670    2.186128
     26          1           0        1.540382    3.866748    0.190061
     27          1           0        0.526319    2.638047   -1.990802
     28          1           0       -4.475808    0.609710   -0.163616
     29          1           0       -4.701623   -1.528679    1.096813
     30          1           0       -2.826131   -3.164653    1.037541
     31          1           0       -0.373187   -3.467100    0.589510
     32          1           0       -0.754235   -3.551691   -1.132477
     33          1           0        0.562977   -1.491149   -2.767179
     34          1           0        2.956498   -0.441966   -2.352924
     35          1           0        3.953152   -1.450235   -0.095363
     36          1           0        2.127962   -3.002513    1.024046
 ---------------------------------------------------------------------
 Rotational constants (GHZ):      0.3295628      0.2926521      0.2117197
 Leave Link  202 at Mon Sep 15 12:51:04 2025, MaxMem=    33554432 cpu:         0.0
 (Enter /appl/g09.shchoi/G09Files/g09/l301.exe)
 Standard basis: SDD (6D, 10F)
 Ernie: Thresh=  0.10000D-02 Tol=  0.10000D-05 Strict=F.
 There are   285 symmetry adapted cartesian basis functions of A   symmetry.
 There are   285 symmetry adapted basis functions of A   symmetry.
   285 basis functions,   629 primitive gaussians,   285 cartesian basis functions
    85 alpha electrons       85 beta electrons
       nuclear repulsion energy      2098.8337231260 Hartrees.
 IExCor=    0 DFT=F Ex=HF Corr=None ExCW=0 ScaHFX=  1.000000
 ScaDFX=  1.000000  1.000000  1.000000  1.000000 ScalE2=  1.000000  1.000000
 IRadAn=      0 IRanWt=     -1 IRanGd=            0 ICorTp=0 IEmpDi=  4
 NAtoms=   36 NActive=   36 NUniq=   36 SFac= 1.00D+00 NAtFMM=   60 NAOKFM=F Big=F
 Integral buffers will be    131072 words long.
 Raffenetti 1 integral format.
 Two-electron integral symmetry is turned on.
 Leave Link  301 at Mon Sep 15 12:51:04 2025, MaxMem=    33554432 cpu:         0.0
 (Enter /appl/g09.shchoi/G09Files/g09/l402.exe)
 External calculation of energy and first derivatives.
 Running external command "/home/rxn_grp/programs/xtb-gaussian R"
         input file       "/home/rxn_grp/scratch/Gau-2486621.EIn"
         output file      "/home/rxn_grp/scratch/Gau-2486621.EOu"
         message file     "/home/rxn_grp/scratch/Gau-2486621.EMs"
         fchk file        "/home/rxn_grp/scratch/Gau-2486621.EFC"
         mat. el file     "/home/rxn_grp/scratch/Gau-2486621.EUF"

 ExternalExternalExternalExternalExternalExternalExternalExternalExternalExternal
 Output from external command:
 "/home/rxn_grp/programs/xtb-gaussian R /home/rxn_grp/scratch/Gau-2486621.EIn /home/rxn_grp/scratch/Gau-2486621.EOu /home/rxn_grp/scratch/Gau-2486621.EMs /home/rxn_grp/scratch/Gau-2486621.EFC /home/rxn_grp/scratch/Gau-2486621.EUF"
 normal termination of xtb
  
 ------- xtb command was ---------
 ?> xtb ./Gau-2486621.EIn  --grad --charge 0  >/dev/null 2>Gau-2486621.EMs
 ---------------------------------
              Control returned to Gaussian.
 ~~~~~~~~~~~~~~~~~~~~~~~~~~~~~~~~~~~~~~~~~~~~~~~~~~~~~~~~~~~~~~~~~~~~~~~~~
 ExternalExternalExternalExternalExternalExternalExternalExternalExternalExternal

 Recovered energy= -57.7864521536     dipole=     -4.389110029520     -1.584122354930     -0.679179518649
 Energy=    -57.7864522     NIter=   0.
 Dipole moment=      -4.389110      -1.584122      -0.679180
 Leave Link  402 at Mon Sep 15 12:51:04 2025, MaxMem=    33554432 cpu:         0.0
 (Enter /appl/g09.shchoi/G09Files/g09/l601.exe)
 Leave Link  601 at Mon Sep 15 12:51:04 2025, MaxMem=    33554432 cpu:         0.0
 (Enter /appl/g09.shchoi/G09Files/g09/l716.exe)
 Dipole        =-4.38911003D+00-1.58412235D+00-6.79179519D-01
 ***** Axes restored to original set *****
 -------------------------------------------------------------------
 Center     Atomic                   Forces (Hartrees/Bohr)
 Number     Number              X              Y              Z
 -------------------------------------------------------------------
      1       40          -0.024934856   -0.015364919   -0.028586176
      2       17           0.019838633    0.009508944    0.004646303
      3       17          -0.017569619    0.016974324    0.015773956
      4        7           0.022571753   -0.004410325    0.016700066
      5        6           0.000646919    0.007724684   -0.006586094
      6        6          -0.011084208    0.004916922    0.023325808
      7        6          -0.057474361   -0.011386824   -0.006597556
      8        6           0.062924761    0.006325381   -0.043278049
      9        6           0.039116668    0.010975449    0.024010541
     10        6          -0.050513571   -0.020185350    0.015239064
     11        6           0.023867142   -0.011573411   -0.021079167
     12        6           0.001602845   -0.003654496    0.000330335
     13        6           0.004061913    0.001768584    0.000970540
     14        6          -0.002173796    0.003976109    0.003024118
     15        6          -0.000762795   -0.007370631    0.004092166
     16        6           0.010605320   -0.006615726    0.007850553
     17        6           0.008633071   -0.001700221   -0.004092718
     18        6           0.028675106    0.027731104    0.018501317
     19        6          -0.013953759   -0.030678681   -0.045442874
     20        6          -0.043584462   -0.000178253   -0.012796911
     21        6           0.013300679    0.017333473    0.019021388
     22        1          -0.001001770   -0.001265252   -0.001524631
     23        1           0.001792256   -0.000279461    0.000932962
     24        1           0.004329721    0.000557203    0.003528672
     25        1           0.000373205    0.003429772    0.000771582
     26        1          -0.001338628    0.001575043    0.002237541
     27        1          -0.005325677    0.002157380    0.001779136
     28        1          -0.003382415   -0.004775122    0.000218043
     29        1          -0.002994651   -0.000757258   -0.002263301
     30        1          -0.004282386    0.001889817   -0.001569596
     31        1          -0.000077223   -0.000333271    0.000644657
     32        1           0.001062337    0.001383167    0.004669373
     33        1          -0.001789380    0.002376231    0.004513086
     34        1          -0.001697437   -0.003935682   -0.000774368
     35        1          -0.001144049    0.001978918    0.000599368
     36        1           0.001682716    0.001882377    0.001210863
 -------------------------------------------------------------------
 Cartesian Forces:  Max     0.062924761 RMS     0.016468232
 Leave Link  716 at Mon Sep 15 12:51:04 2025, MaxMem=    33554432 cpu:         0.0
 (Enter /appl/g09.shchoi/G09Files/g09/l103.exe)

 GradGradGradGradGradGradGradGradGradGradGradGradGradGradGradGradGradGrad
 Berny optimization.
 FormGI is forming the generalized inverse of G from B-inverse, IUseBI=4.
 Internal  Forces:  Max     0.061242983 RMS     0.008514150
 Search for a local minimum.
 Step number   1 out of a maximum of  216
 All quantities printed in internal units (Hartrees-Bohrs-Radians)
 RMS Force = .85142D-02 SwitMx=.10000D-02 MixMth= 1
 Mixed Optimization -- RFO/linear search
 Second derivative matrix not updated -- first step.
 ITU=  0
     Eigenvalues ---    0.00715   0.00800   0.01515   0.01573   0.01701
     Eigenvalues ---    0.01742   0.01857   0.01864   0.01957   0.02031
     Eigenvalues ---    0.02111   0.02142   0.02164   0.02192   0.02208
     Eigenvalues ---    0.02225   0.02229   0.02238   0.02248   0.02296
     Eigenvalues ---    0.02406   0.02493   0.03119   0.03281   0.03417
     Eigenvalues ---    0.03542   0.04521   0.04546   0.05010   0.05122
     Eigenvalues ---    0.05732   0.06020   0.06197   0.06624   0.07215
     Eigenvalues ---    0.07971   0.08572   0.08810   0.09391   0.09705
     Eigenvalues ---    0.09926   0.09926   0.10030   0.10766   0.10868
     Eigenvalues ---    0.12550   0.14294   0.14939   0.15081   0.15291
     Eigenvalues ---    0.15384   0.15667   0.15825   0.15927   0.15941
     Eigenvalues ---    0.15961   0.15976   0.15995   0.15999   0.16000
     Eigenvalues ---    0.16415   0.17333   0.19581   0.21489   0.21824
     Eigenvalues ---    0.22181   0.23599   0.29761   0.31497   0.32169
     Eigenvalues ---    0.32542   0.32696   0.34021   0.34050   0.34109
     Eigenvalues ---    0.34135   0.35282   0.35321   0.35442   0.35467
     Eigenvalues ---    0.36093   0.36106   0.36122   0.36137   0.36152
     Eigenvalues ---    0.36388   0.36421   0.36578   0.36638   0.37234
     Eigenvalues ---    0.37961   0.39391   0.41195   0.42303   0.46962
     Eigenvalues ---    0.47423   0.48150   0.49376   0.49570   0.50963
     Eigenvalues ---    0.54907   0.55666
 RFO step:  Lambda=-6.91645245D-02 EMin= 7.15171522D-03
 Linear search not attempted -- first point.
 Maximum step size (   0.300) exceeded in Quadratic search.
    -- Step size scaled by   0.793
 Iteration  1 RMS(Cart)=  0.07661738 RMS(Int)=  0.00292486
 Iteration  2 RMS(Cart)=  0.00387890 RMS(Int)=  0.00051070
 Iteration  3 RMS(Cart)=  0.00001059 RMS(Int)=  0.00051062
 Iteration  4 RMS(Cart)=  0.00000001 RMS(Int)=  0.00051062
 ITry= 1 IFail=0 DXMaxC= 5.34D-01 DCOld= 1.00D+10 DXMaxT= 3.00D-01 DXLimC= 3.00D+00 Rises=F
 Variable       Old X    -DE/DX   Delta X   Delta X   Delta X     New X
                                 (Linear)    (Quad)   (Total)
    R1        4.71109  -0.01660   0.00000  -0.07814  -0.07814   4.63295
    R2        4.71109  -0.02727   0.00000  -0.12839  -0.12839   4.58270
    R3        4.18385   0.01274   0.00000   0.04481   0.04464   4.22849
    R4        4.92604  -0.01950   0.00000  -0.11317  -0.11329   4.81275
    R5        4.92235  -0.00138   0.00000  -0.01139  -0.01109   4.91127
    R6        2.55151   0.00276   0.00000   0.00019   0.00022   2.55173
    R7        2.56444  -0.00437   0.00000  -0.00643  -0.00663   2.55780
    R8        2.80973   0.00510   0.00000   0.00619   0.00647   2.81620
    R9        2.62930  -0.00349   0.00000  -0.00489  -0.00491   2.62439
   R10        2.79407   0.02047   0.00000   0.04122   0.04138   2.83545
   R11        2.07104   0.00118   0.00000   0.00227   0.00227   2.07331
   R12        2.07147   0.00027   0.00000   0.00052   0.00052   2.07199
   R13        2.54983   0.06124   0.00000   0.08013   0.08028   2.63011
   R14        2.72077  -0.00817   0.00000  -0.01692  -0.01699   2.70378
   R15        2.72026  -0.02000   0.00000  -0.03002  -0.02995   2.69031
   R16        2.03868   0.00546   0.00000   0.01005   0.01005   2.04872
   R17        2.54341   0.04520   0.00000   0.05742   0.05740   2.60080
   R18        2.03916   0.00093   0.00000   0.00172   0.00172   2.04087
   R19        2.73538  -0.02322   0.00000  -0.04445  -0.04457   2.69081
   R20        2.03844  -0.00144   0.00000  -0.00266  -0.00266   2.03579
   R21        2.03188   0.00404   0.00000   0.00736   0.00736   2.03924
   R22        2.62378  -0.00363   0.00000  -0.00441  -0.00441   2.61937
   R23        2.04924  -0.00455   0.00000  -0.00850  -0.00850   2.04074
   R24        2.62492  -0.00301   0.00000  -0.00382  -0.00380   2.62112
   R25        2.05156  -0.00381   0.00000  -0.00716  -0.00716   2.04440
   R26        2.63184  -0.00244   0.00000  -0.00387  -0.00386   2.62798
   R27        2.04963  -0.00461   0.00000  -0.00863  -0.00863   2.04100
   R28        2.83775  -0.00691   0.00000  -0.01115  -0.01148   2.82627
   R29        2.79828   0.01884   0.00000   0.03896   0.03890   2.83719
   R30        2.07246  -0.00009   0.00000  -0.00017  -0.00017   2.07229
   R31        2.07295   0.00247   0.00000   0.00479   0.00479   2.07774
   R32        2.73107  -0.00012   0.00000   0.00152   0.00092   2.73199
   R33        2.72814  -0.00548   0.00000  -0.00801  -0.00825   2.71989
   R34        2.53897   0.04088   0.00000   0.05119   0.05122   2.59019
   R35        2.03429   0.00521   0.00000   0.00952   0.00952   2.04381
   R36        2.75971  -0.01846   0.00000  -0.03549  -0.03498   2.72474
   R37        2.03891   0.00115   0.00000   0.00211   0.00211   2.04103
   R38        2.53852   0.03967   0.00000   0.04872   0.04905   2.58757
   R39        2.03936  -0.00100   0.00000  -0.00185  -0.00185   2.03751
   R40        2.03479   0.00033   0.00000   0.00060   0.00060   2.03540
    A1        1.70208  -0.00214   0.00000  -0.00952  -0.01132   1.69077
    A2        2.46093   0.01187   0.00000   0.06478   0.06382   2.52475
    A3        1.71715   0.00029   0.00000  -0.00029  -0.00009   1.71706
    A4        1.75440   0.00836   0.00000   0.05467   0.05274   1.80713
    A5        2.05349  -0.00439   0.00000  -0.02448  -0.02559   2.02790
    A6        2.35106  -0.01252   0.00000  -0.05858  -0.05884   2.29222
    A7        1.50761   0.00693   0.00000   0.02639   0.02635   1.53396
    A8        1.21096   0.00263   0.00000   0.00621   0.00593   1.21689
    A9        1.18147  -0.00059   0.00000  -0.00081  -0.00086   1.18061
   A10        2.29086   0.00269   0.00000   0.01178   0.01135   2.30220
   A11        2.03228  -0.00345   0.00000  -0.00964  -0.00993   2.02235
   A12        1.82354   0.00250   0.00000   0.00682   0.00687   1.83041
   A13        2.02572   0.00156   0.00000   0.00834   0.00844   2.03416
   A14        1.95542   0.00504   0.00000   0.01017   0.01016   1.96558
   A15        2.16305  -0.00284   0.00000  -0.00775  -0.00784   2.15521
   A16        2.15023  -0.00217   0.00000  -0.00289  -0.00277   2.14745
   A17        1.83551  -0.00925   0.00000  -0.02784  -0.02707   1.80844
   A18        1.91645   0.00545   0.00000   0.01948   0.01915   1.93560
   A19        1.95266  -0.00039   0.00000  -0.00853  -0.00869   1.94398
   A20        1.94371  -0.00089   0.00000  -0.00380  -0.00406   1.93965
   A21        1.94563   0.00564   0.00000   0.01550   0.01526   1.96088
   A22        1.87102  -0.00048   0.00000   0.00516   0.00525   1.87627
   A23        1.85102   0.00741   0.00000   0.03416   0.03383   1.88485
   A24        1.58251  -0.00938   0.00000  -0.05036  -0.05002   1.53249
   A25        1.49748  -0.00438   0.00000  -0.02661  -0.02626   1.47123
   A26        2.16286   0.00009   0.00000  -0.00261  -0.00220   2.16066
   A27        2.20502  -0.00089   0.00000  -0.00123  -0.00122   2.20380
   A28        1.87789   0.00227   0.00000   0.01465   0.01347   1.89136
   A29        1.89659  -0.00992   0.00000  -0.01827  -0.01830   1.87828
   A30        2.22702   0.00412   0.00000   0.00636   0.00613   2.23315
   A31        2.15780   0.00604   0.00000   0.01371   0.01352   2.17132
   A32        1.88857  -0.00308   0.00000  -0.00268  -0.00268   1.88589
   A33        2.18304   0.00011   0.00000  -0.00317  -0.00313   2.17992
   A34        2.20941   0.00301   0.00000   0.00596   0.00592   2.21533
   A35        1.88984   0.00835   0.00000   0.01763   0.01746   1.90730
   A36        2.21209  -0.00266   0.00000  -0.00356  -0.00349   2.20860
   A37        2.18104  -0.00570   0.00000  -0.01395  -0.01387   2.16718
   A38        1.84675   0.00414   0.00000   0.00195   0.00155   1.84831
   A39        2.21397  -0.00190   0.00000   0.00201   0.00194   2.21591
   A40        2.20007  -0.00140   0.00000   0.00364   0.00348   2.20354
   A41        2.06486   0.00271   0.00000   0.00703   0.00700   2.07185
   A42        2.11210  -0.00326   0.00000  -0.01005  -0.01004   2.10206
   A43        2.10497   0.00061   0.00000   0.00323   0.00325   2.10822
   A44        2.07717  -0.00220   0.00000  -0.00571  -0.00571   2.07146
   A45        2.10399   0.00093   0.00000   0.00227   0.00227   2.10626
   A46        2.10198   0.00127   0.00000   0.00345   0.00344   2.10543
   A47        2.07073   0.00299   0.00000   0.00646   0.00647   2.07720
   A48        2.10266   0.00031   0.00000   0.00301   0.00300   2.10566
   A49        2.10977  -0.00329   0.00000  -0.00946  -0.00946   2.10031
   A50        2.15307  -0.00203   0.00000  -0.00642  -0.00649   2.14658
   A51        2.02594  -0.00068   0.00000  -0.00359  -0.00356   2.02238
   A52        2.10121   0.00280   0.00000   0.01049   0.01052   2.11173
   A53        1.95057   0.00196   0.00000   0.00913   0.00913   1.95970
   A54        1.90723  -0.00012   0.00000   0.00320   0.00308   1.91031
   A55        1.89460  -0.00387   0.00000  -0.02191  -0.02189   1.87271
   A56        1.92190  -0.00013   0.00000   0.00466   0.00452   1.92642
   A57        1.91661   0.00219   0.00000   0.00603   0.00614   1.92274
   A58        1.87101  -0.00018   0.00000  -0.00193  -0.00197   1.86904
   A59        1.76302  -0.00232   0.00000  -0.00420  -0.00425   1.75877
   A60        1.52131   0.00254   0.00000   0.01343   0.01359   1.53490
   A61        1.63692   0.00053   0.00000   0.00412   0.00428   1.64119
   A62        2.21259   0.00126   0.00000  -0.00238  -0.00181   2.21078
   A63        2.15323   0.00523   0.00000   0.02041   0.02071   2.17394
   A64        1.88722  -0.00681   0.00000  -0.02203  -0.02310   1.86413
   A65        1.82363   0.01169   0.00000   0.04753   0.04365   1.86728
   A66        2.20632  -0.00663   0.00000  -0.02048  -0.02162   2.18470
   A67        2.23705  -0.00276   0.00000  -0.00698  -0.00820   2.22884
   A68        1.90454  -0.00660   0.00000  -0.01033  -0.01125   1.89329
   A69        2.20057   0.00478   0.00000   0.01139   0.01155   2.21212
   A70        2.16117   0.00228   0.00000   0.00353   0.00404   2.16521
   A71        1.90131  -0.00289   0.00000  -0.00327  -0.00390   1.89741
   A72        2.16563  -0.00013   0.00000  -0.00435  -0.00406   2.16157
   A73        2.20919   0.00278   0.00000   0.00613   0.00648   2.21567
   A74        1.83707   0.01020   0.00000   0.03778   0.03542   1.87249
   A75        2.21608  -0.00734   0.00000  -0.02535  -0.02557   2.19051
   A76        2.22801  -0.00230   0.00000  -0.00767  -0.00789   2.22012
    D1       -1.73731   0.00957   0.00000   0.06314   0.06427  -1.67305
    D2        2.28673   0.00790   0.00000   0.05327   0.05449   2.34121
    D3        1.89495  -0.00719   0.00000  -0.03452  -0.03440   1.86055
    D4       -0.36420  -0.00886   0.00000  -0.04440  -0.04418  -0.40838
    D5       -0.38527   0.00579   0.00000   0.02826   0.02786  -0.35741
    D6       -2.64442   0.00412   0.00000   0.01839   0.01808  -2.62634
    D7       -3.11381   0.00382   0.00000   0.01296   0.01274  -3.10107
    D8        0.91023   0.00215   0.00000   0.00308   0.00296   0.91319
    D9        2.27280   0.00828   0.00000   0.04664   0.04597   2.31876
   D10       -1.81578   0.00662   0.00000   0.03316   0.03211  -1.78367
   D11        0.06209   0.00963   0.00000   0.05184   0.05155   0.11363
   D12       -2.10108  -0.00092   0.00000   0.00251   0.00240  -2.09868
   D13        0.09353  -0.00258   0.00000  -0.01097  -0.01146   0.08207
   D14        1.97140   0.00043   0.00000   0.00771   0.00798   1.97937
   D15       -0.19885  -0.00397   0.00000  -0.02291  -0.02261  -0.22146
   D16        1.99576  -0.00563   0.00000  -0.03639  -0.03647   1.95930
   D17       -2.40956  -0.00262   0.00000  -0.01771  -0.01703  -2.42659
   D18        0.31784  -0.00532   0.00000  -0.03706  -0.03687   0.28097
   D19        2.51245  -0.00698   0.00000  -0.05055  -0.05072   2.46172
   D20       -1.89287  -0.00397   0.00000  -0.03187  -0.03129  -1.92416
   D21        3.13570  -0.00685   0.00000  -0.04628  -0.04696   3.08874
   D22       -0.93198  -0.00524   0.00000  -0.04630  -0.04636  -0.97834
   D23        0.95291  -0.01194   0.00000  -0.06780  -0.06883   0.88409
   D24        1.44293  -0.00557   0.00000  -0.03908  -0.03955   1.40338
   D25       -2.62474  -0.00395   0.00000  -0.03910  -0.03896  -2.66370
   D26       -0.73985  -0.01066   0.00000  -0.06060  -0.06142  -0.80127
   D27       -0.68490   0.00281   0.00000   0.00212   0.00229  -0.68261
   D28        1.53061   0.00443   0.00000   0.00210   0.00288   1.53349
   D29       -2.86768  -0.00228   0.00000  -0.01940  -0.01958  -2.88726
   D30       -1.20822   0.00347   0.00000   0.01496   0.01533  -1.19289
   D31        1.00729   0.00509   0.00000   0.01494   0.01593   1.02322
   D32        2.89218  -0.00162   0.00000  -0.00656  -0.00653   2.88565
   D33        0.96956  -0.00322   0.00000  -0.02755  -0.02729   0.94226
   D34       -1.99466  -0.00326   0.00000  -0.02461  -0.02445  -2.01911
   D35        3.12768  -0.00133   0.00000  -0.01884  -0.01873   3.10895
   D36        0.16347  -0.00137   0.00000  -0.01590  -0.01589   0.14757
   D37        2.11431   0.00001   0.00000   0.01051   0.01039   2.12470
   D38       -1.10987   0.00142   0.00000   0.01775   0.01767  -1.09220
   D39       -0.14875   0.00134   0.00000   0.01141   0.01151  -0.13724
   D40        2.91025   0.00275   0.00000   0.01866   0.01879   2.92904
   D41       -1.09498   0.00329   0.00000   0.01667   0.01706  -1.07793
   D42        0.99806  -0.00022   0.00000   0.00639   0.00645   1.00451
   D43        3.07333   0.00252   0.00000   0.02025   0.02010   3.09343
   D44        1.87075   0.00324   0.00000   0.01316   0.01362   1.88437
   D45       -2.31939  -0.00027   0.00000   0.00289   0.00301  -2.31638
   D46       -0.24412   0.00247   0.00000   0.01675   0.01667  -0.22746
   D47       -0.07317   0.00094   0.00000   0.01214   0.01206  -0.06111
   D48        3.01479   0.00212   0.00000   0.01684   0.01682   3.03161
   D49       -3.01804   0.00021   0.00000   0.01421   0.01401  -3.00403
   D50        0.06992   0.00139   0.00000   0.01891   0.01877   0.08870
   D51        0.66717   0.00059   0.00000   0.01259   0.01261   0.67977
   D52       -1.11340   0.00702   0.00000   0.05271   0.05261  -1.06079
   D53        2.35531   0.00031   0.00000   0.00406   0.00415   2.35947
   D54       -1.40771   0.00006   0.00000   0.00790   0.00783  -1.39988
   D55        3.09490   0.00649   0.00000   0.04803   0.04783  -3.14045
   D56        0.28044  -0.00021   0.00000  -0.00062  -0.00063   0.27981
   D57        2.78664  -0.00254   0.00000  -0.00654  -0.00648   2.78016
   D58        1.00607   0.00389   0.00000   0.03359   0.03352   1.03960
   D59       -1.80839  -0.00281   0.00000  -0.01506  -0.01494  -1.82333
   D60        1.28080  -0.00016   0.00000   0.01266   0.01238   1.29318
   D61       -1.79797  -0.00444   0.00000  -0.01947  -0.01951  -1.81748
   D62       -3.08339   0.00225   0.00000   0.01783   0.01786  -3.06553
   D63        0.12102  -0.00203   0.00000  -0.01429  -0.01402   0.10699
   D64       -0.21679   0.00744   0.00000   0.05672   0.05699  -0.15980
   D65        2.98762   0.00316   0.00000   0.02459   0.02511   3.01272
   D66       -1.38243   0.00382   0.00000   0.00981   0.00984  -1.37259
   D67        1.54274   0.00775   0.00000   0.04641   0.04659   1.58932
   D68        3.03548  -0.00204   0.00000  -0.01285  -0.01272   3.02276
   D69       -0.32253   0.00188   0.00000   0.02375   0.02402  -0.29851
   D70        0.17739  -0.00761   0.00000  -0.05276  -0.05297   0.12442
   D71        3.10256  -0.00368   0.00000  -0.01615  -0.01623   3.08633
   D72        0.17706  -0.00683   0.00000  -0.04314  -0.04266   0.13440
   D73       -3.03130  -0.00620   0.00000  -0.04128  -0.04076  -3.07206
   D74       -3.02431  -0.00281   0.00000  -0.01282  -0.01245  -3.03676
   D75        0.05052  -0.00218   0.00000  -0.01097  -0.01055   0.03997
   D76       -0.06025  -0.00113   0.00000   0.00334   0.00400  -0.05625
   D77        3.10260  -0.00074   0.00000  -0.00212  -0.00172   3.10089
   D78       -3.13379  -0.00163   0.00000   0.00190   0.00249  -3.13129
   D79        0.02906  -0.00124   0.00000  -0.00355  -0.00322   0.02584
   D80       -0.06794   0.00313   0.00000   0.02701   0.02727  -0.04067
   D81       -2.99535  -0.00066   0.00000  -0.00896  -0.00888  -3.00424
   D82        3.05287   0.00279   0.00000   0.03249   0.03297   3.08583
   D83        0.12545  -0.00100   0.00000  -0.00347  -0.00319   0.12226
   D84       -0.03939  -0.00001   0.00000  -0.00192  -0.00191  -0.04130
   D85        3.11184   0.00002   0.00000  -0.00245  -0.00243   3.10941
   D86       -3.12758  -0.00107   0.00000  -0.00618  -0.00627  -3.13384
   D87        0.02365  -0.00104   0.00000  -0.00671  -0.00678   0.01686
   D88        0.05196   0.00016   0.00000  -0.00177  -0.00174   0.05022
   D89       -3.08330  -0.00056   0.00000  -0.00361  -0.00366  -3.08696
   D90       -3.09925   0.00013   0.00000  -0.00124  -0.00123  -3.10049
   D91        0.04867  -0.00059   0.00000  -0.00309  -0.00315   0.04552
   D92        0.04541  -0.00088   0.00000  -0.00364  -0.00370   0.04171
   D93       -3.01018  -0.00217   0.00000  -0.01050  -0.01065  -3.02083
   D94       -3.10254  -0.00014   0.00000  -0.00174  -0.00175  -3.10429
   D95        0.12505  -0.00143   0.00000  -0.00860  -0.00870   0.11636
   D96        0.40931  -0.00105   0.00000  -0.01776  -0.01769   0.39162
   D97        2.54096   0.00001   0.00000  -0.00359  -0.00361   2.53735
   D98       -1.70708  -0.00244   0.00000  -0.01640  -0.01638  -1.72346
   D99       -2.81224   0.00007   0.00000  -0.01158  -0.01141  -2.82365
   D100      -0.68059   0.00113   0.00000   0.00258   0.00266  -0.67792
   D101       1.35455  -0.00132   0.00000  -0.01022  -0.01010   1.34445
   D102       0.36454   0.00131   0.00000   0.01523   0.01516   0.37970
   D103      -1.28889  -0.00047   0.00000   0.00195   0.00158  -1.28731
   D104       2.14568   0.00208   0.00000   0.02429   0.02454   2.17022
   D105      -1.75867   0.00022   0.00000   0.00176   0.00174  -1.75693
   D106       2.87108  -0.00156   0.00000  -0.01153  -0.01184   2.85924
   D107       0.02246   0.00099   0.00000   0.01082   0.01112   0.03359
   D108       2.46814  -0.00080   0.00000  -0.00232  -0.00232   2.46581
   D109       0.81471  -0.00258   0.00000  -0.01561  -0.01591   0.79880
   D110      -2.03391  -0.00003   0.00000   0.00673   0.00705  -2.02686
   D111       1.26315   0.01599   0.00000   0.13689   0.13665   1.39980
   D112      -1.69799   0.00332   0.00000   0.02572   0.02535  -1.67264
   D113       3.03712   0.01512   0.00000   0.14149   0.14135  -3.10471
   D114       0.07598   0.00245   0.00000   0.03032   0.03006   0.10603
   D115      -0.36106   0.01439   0.00000   0.12747   0.12735  -0.23371
   D116       2.96098   0.00172   0.00000   0.01631   0.01605   2.97703
   D117      -1.23098  -0.01381   0.00000  -0.11599  -0.11550  -1.34648
   D118       1.84615  -0.00483   0.00000  -0.04015  -0.04009   1.80606
   D119      -3.07816  -0.01268   0.00000  -0.11897  -0.11879   3.08624
   D120      -0.00103  -0.00370   0.00000  -0.04312  -0.04338  -0.04440
   D121       0.30933  -0.01135   0.00000  -0.10174  -0.10130   0.20803
   D122      -2.89673  -0.00237   0.00000  -0.02589  -0.02589  -2.92262
   D123       0.27146  -0.01061   0.00000  -0.09890  -0.10078   0.17068
   D124      -3.06168  -0.00799   0.00000  -0.07321  -0.07458  -3.13626
   D125      -3.05491   0.00187   0.00000   0.01319   0.01254  -3.04237
   D126      -0.10486   0.00449   0.00000   0.03888   0.03875  -0.06612
   D127      -0.08745   0.00579   0.00000   0.04623   0.04542  -0.04203
   D128       2.93394   0.00395   0.00000   0.03409   0.03406   2.96800
   D129      -3.04277   0.00288   0.00000   0.02014   0.01901  -3.02376
   D130      -0.02137   0.00103   0.00000   0.00800   0.00765  -0.01373
   D131      -0.14009   0.00373   0.00000   0.03356   0.03437  -0.10572
   D132       3.06655  -0.00509   0.00000  -0.04212  -0.04187   3.02468
   D133       3.12549   0.00590   0.00000   0.04702   0.04713  -3.11056
   D134       0.04895  -0.00292   0.00000  -0.02866  -0.02911   0.01984
         Item               Value     Threshold  Converged?
 Maximum Force            0.061243     0.000450     NO 
 RMS     Force            0.008514     0.000300     NO 
 Maximum Displacement     0.534096     0.001800     NO 
 RMS     Displacement     0.075902     0.001200     NO 
 Predicted change in Energy=-4.302837D-02
 GradGradGradGradGradGradGradGradGradGradGradGradGradGradGradGradGradGrad

 Leave Link  103 at Mon Sep 15 12:51:04 2025, MaxMem=    33554432 cpu:         0.0
 (Enter /appl/g09.shchoi/G09Files/g09/l202.exe)
                          Input orientation:                          
 ---------------------------------------------------------------------
 Center     Atomic      Atomic             Coordinates (Angstroms)
 Number     Number       Type             X           Y           Z
 ---------------------------------------------------------------------
      1         40           0       -0.028609    0.050805   -0.005630
      2         17           0       -1.484400    0.033938   -1.978186
      3         17           0        2.014962   -0.581995   -1.147691
      4          7           0        0.018042   -0.047473    2.229346
      5          6           0        0.065795    1.139969    2.870487
      6          6           0       -1.030832    2.059859    2.455615
      7          6           0       -0.780122    2.270592    0.991340
      8          6           0        0.384619    2.834075    0.478550
      9          6           0        0.216774    2.964227   -0.929167
     10          6           0       -1.088096    2.650255   -1.233959
     11          6           0       -1.762631    2.241742   -0.048354
     12          6           0        1.139059    1.545635    3.652926
     13          6           0        2.190747    0.664279    3.849072
     14          6           0        2.106970   -0.605563    3.297386
     15          6           0        1.002215   -0.930776    2.517832
     16          6           0        0.789081   -2.328039    2.028911
     17          6           0       -0.175411   -2.388202    0.879886
     18          6           0       -1.609965   -2.222102    0.947262
     19          6           0       -2.093903   -2.401157   -0.322574
     20          6           0       -1.026697   -2.903797   -1.151674
     21          6           0        0.115536   -2.978352   -0.400219
     22          1           0       -2.012542    1.600877    2.626822
     23          1           0       -1.001889    2.997765    3.022799
     24          1           0        1.285522    3.107737    1.015985
     25          1           0        0.976532    3.314172   -1.612301
     26          1           0       -1.545353    2.685143   -2.208770
     27          1           0       -2.755935    1.823941    0.008981
     28          1           0        1.171729    2.544901    4.061104
     29          1           0        3.056185    0.957707    4.428141
     30          1           0        2.884720   -1.334252    3.472402
     31          1           0        1.752797   -2.765468    1.741761
     32          1           0        0.406908   -2.915998    2.875743
     33          1           0       -2.163533   -1.939330    1.832319
     34          1           0       -3.126157   -2.342544   -0.634913
     35          1           0       -1.169083   -3.276822   -2.153224
     36          1           0        1.060357   -3.405294   -0.692023
 ---------------------------------------------------------------------
                    Distance matrix (angstroms):
                    1          2          3          4          5
     1  Zr   0.000000
     2  Cl   2.451650   0.000000
     3  Cl   2.425061   3.648921   0.000000
     4  N    2.237622   4.468476   3.959518   0.000000
     5  C    3.076889   5.209226   4.786457   1.350319   0.000000
     6  C    3.331437   4.895780   5.407408   2.364779   1.490270
     7  C    2.546798   3.783744   4.530475   2.746480   2.350548
     8  C    2.855132   4.167678   4.119734   3.391605   2.948391
     9  C    3.066131   3.546974   3.982075   4.368757   4.217593
    10  C    3.064057   2.748826   4.481501   4.527224   4.523152
    11  C    2.794435   2.945516   4.842752   3.687712   3.616169
    12  C    4.121044   6.393527   5.323528   2.412728   1.388767
    13  C    4.490058   6.918162   5.152838   2.801919   2.387327
    14  C    3.987660   6.413934   4.446092   2.411595   2.719470
    15  C    2.897234   5.227629   3.818818   1.353531   2.299833
    16  C    3.235254   5.177303   3.826520   2.415710   3.641219
    17  C    2.598932   3.968474   3.488723   2.708778   4.058161
    18  C    2.928276   3.696448   4.496541   3.003857   4.220247
    19  C    3.221492   3.007031   4.568692   4.063550   5.234454
    20  C    3.322540   3.085920   3.826548   4.547677   5.807182
    21  C    3.058149   3.758147   3.147866   3.938804   5.259332
    22  H    3.642598   4.892886   5.935712   2.645433   2.142731
    23  H    4.336270   5.833261   6.269694   3.308066   2.148151
    24  H    3.480729   5.107423   4.339090   3.610278   2.966315
    25  H    3.773760   4.117037   4.058856   5.193997   5.064779
    26  H    3.754207   2.661911   4.947314   5.441348   5.548172
    27  H    3.253081   2.961376   5.466981   4.015864   4.076542
    28  H    4.919314   7.059247   6.133520   3.377386   2.148137
    29  H    5.476929   7.906407   5.877477   3.882705   3.376676
    30  H    4.743688   7.118290   4.761054   3.379176   3.798738
    31  H    3.762736   5.670461   3.631146   3.261076   4.401414
    32  H    4.158595   5.986635   4.921528   2.966055   4.070290
[...]
 ! D119  D(16,17,21,20)        178.1301         -DE/DX =    0.0                 !
 ! D120  D(16,17,21,36)          4.381          -DE/DX =    0.0                 !
 ! D121  D(18,17,21,20)         -1.9478         -DE/DX =    0.0                 !
 ! D122  D(18,17,21,36)       -175.697          -DE/DX =    0.0                 !
 ! D123  D(17,18,19,20)          0.0256         -DE/DX =    0.0                 !
 ! D124  D(17,18,19,34)        171.3964         -DE/DX =    0.0                 !
 ! D125  D(33,18,19,20)       -171.0396         -DE/DX =    0.0                 !
 ! D126  D(33,18,19,34)          0.3312         -DE/DX =    0.0                 !
 ! D127  D(18,19,20,21)         -1.2385         -DE/DX =    0.0                 !
 ! D128  D(18,19,20,35)        174.7672         -DE/DX =    0.0                 !
 ! D129  D(34,19,20,21)       -172.6472         -DE/DX =    0.0                 !
 ! D130  D(34,19,20,35)          3.3585         -DE/DX =    0.0                 !
 ! D131  D(19,20,21,17)          1.9729         -DE/DX =    0.0                 !
 ! D132  D(19,20,21,36)        175.7311         -DE/DX =    0.0                 !
 ! D133  D(35,20,21,17)       -174.0478         -DE/DX =    0.0                 !
 ! D134  D(35,20,21,36)         -0.2897         -DE/DX =    0.0                 !
 --------------------------------------------------------------------------------
 GradGradGradGradGradGradGradGradGradGradGradGradGradGradGradGradGradGrad

 Largest change from initial coordinates is atom   25       1.092 Angstoms.
 Leave Link  103 at Mon Sep 15 12:51:24 2025, MaxMem=    33554432 cpu:         0.0
 (Enter /appl/g09.shchoi/G09Files/g09/l202.exe)
                          Input orientation:                          
 ---------------------------------------------------------------------
 Center     Atomic      Atomic             Coordinates (Angstroms)
 Number     Number       Type             X           Y           Z
 ---------------------------------------------------------------------
      1         40           0        0.021535    0.094325   -0.342221
      2         17           0        0.731876    0.218999   -2.612614
      3         17           0        2.334599    0.352163    0.100867
      4          7           0        0.429321    0.094025    2.147549
      5          6           0        0.595875    1.258526    2.780654
      6          6           0        0.179188    2.510633    2.052080
      7          6           0       -0.568660    2.199723    0.788437
      8          6           0       -0.197396    2.563816   -0.528085
      9          6           0       -1.207914    2.105705   -1.402719
     10          6           0       -2.174245    1.423902   -0.643966
     11          6           0       -1.785540    1.478110    0.713924
     12          6           0        1.157308    1.339082    4.049865
     13          6           0        1.574657    0.177765    4.675185
     14          6           0        1.430241   -1.023553    4.004453
     15          6           0        0.859732   -1.025026    2.736751
     16          6           0        0.736497   -2.310555    1.959282
     17          6           0       -0.069198   -2.130855    0.705768
     18          6           0       -1.418639   -1.702515    0.654506
     19          6           0       -1.816707   -1.687091   -0.701647
     20          6           0       -0.724760   -2.102341   -1.482394
     21          6           0        0.368058   -2.351377   -0.622311
     22          1           0       -0.430130    3.127432    2.723081
     23          1           0        1.085665    3.078556    1.813262
     24          1           0        0.652034    3.180110   -0.804264
     25          1           0       -1.261406    2.307776   -2.463829
     26          1           0       -3.121395    1.058020   -1.017009
     27          1           0       -2.383316    1.166489    1.561711
     28          1           0        1.269663    2.299488    4.528105
     29          1           0        2.014279    0.209606    5.660614
     30          1           0        1.760627   -1.950484    4.446447
     31          1           0        1.747564   -2.646570    1.702138
     32          1           0        0.287891   -3.075465    2.603956
     33          1           0       -2.067049   -1.566955    1.511459
     34          1           0       -2.824203   -1.532322   -1.063742
     35          1           0       -0.736571   -2.271229   -2.550563
     36          1           0        1.333910   -2.747458   -0.918745
 ---------------------------------------------------------------------
                    Distance matrix (angstroms):
                    1          2          3          4          5
     1  Zr   0.000000
     2  Cl   2.382187   0.000000
     3  Cl   2.369193   3.154273   0.000000
     4  N    2.522943   4.771406   2.808136   0.000000
     5  C    3.381948   5.494220   3.320528   1.335898   0.000000
     6  C    3.405301   5.226512   3.621053   2.431394   1.507388
     7  C    2.461589   4.145095   3.509294   2.697613   2.492172
     8  C    2.486134   3.272151   3.420232   3.694815   3.644285
     9  C    2.584928   2.964167   4.229075   4.396794   4.633786
    10  C    2.584623   3.711186   4.693941   4.042238   4.407827
    11  C    2.509148   4.357591   4.314990   2.979359   3.160811
    12  C    4.704234   6.769358   4.237288   2.387245   1.390178
    13  C    5.252953   7.336484   4.640292   2.776284   2.390671
    14  C    4.704007   6.768843   4.236561   2.387240   2.720613
    15  C    3.381654   5.493601   3.319603   1.335922   2.299164
    16  C    3.404633   5.225026   3.619075   2.431421   3.665074
    17  C    2.461288   4.144297   3.508494   2.697656   4.029315
    18  C    2.509222   4.357867   4.314512   2.978538   4.164917
    19  C    2.584911   3.712176   4.694245   4.041650   5.159809
    20  C    2.585013   2.964424   4.229774   4.396864   5.586866
    21  C    2.485957   3.271162   3.420439   3.695385   4.966232
    22  H    4.335875   6.186993   4.714005   3.204910   2.132794
    23  H    3.831986   5.281156   3.453310   3.074079   2.118549
    24  H    3.183250   3.470544   3.412853   4.276298   4.067834
    25  H    3.323631   2.891072   4.830460   5.387398   5.661715
    26  H    3.355898   4.254127   5.613889   4.852968   5.317945
    27  H    3.249277   5.294067   5.005589   3.066646   3.220229
    28  H    5.490050   7.457045   4.952434   3.352207   2.142704
    29  H    6.326005   8.372034   5.570791   3.855785   3.377318
    30  H    5.489720   7.456228   4.951333   3.352212   3.798587
    31  H    3.830284   5.278275   3.449794   3.073599   4.211811
    32  H    4.335720   6.185728   4.712017   3.205305   4.348512
    33  H    3.249332   5.294487   5.004727   3.065180   4.084772
    34  H    3.356307   4.255800   5.614343   4.852094   5.853644
    35  H    3.323755   2.891613   4.831600   5.387578   6.531191
    36  H    3.182835   3.468647   3.413011   4.277203   5.502559
                    6          7          8          9         10
     6  C    0.000000
     7  C    1.500912   0.000000
     8  C    2.608044   1.415497   0.000000
     9  C    3.744817   2.284437   1.412798   0.000000
    10  C    3.740094   2.287265   2.284900   1.405118   0.000000
    11  C    2.591702   1.416712   2.289879   2.282040   1.413470
    12  C    2.514040   3.789008   4.928775   5.992717   5.756605
    13  C    3.777603   4.877390   5.992281   6.957052   6.625745
    14  C    4.226981   4.972713   6.005191   6.781566   6.371041
    15  C    3.665078   4.029297   4.965527   5.586756   5.160573
    16  C    4.854179   4.839103   5.551454   5.881083   5.403285
    17  C    4.839180   4.360069   4.855797   4.867323   4.346183
    18  C    4.717719   3.995981   4.592552   4.333488   3.468638
    19  C    5.402546   4.345722   4.552198   3.904796   3.132002
    20  C    5.881255   4.867114   4.791851   4.236441   3.903633
    21  C    5.552223   4.855941   4.948508   4.791482   4.551538
    22  H    1.096335   2.150042   3.307855   4.321007   4.157038
    23  H    1.096025   2.135276   2.719027   4.068105   4.404869
    24  H    2.971614   2.233372   1.085184   2.229776   3.331339
    25  H    4.744460   3.326982   2.223686   1.081503   2.219551
    26  H    4.735318   3.328600   3.325092   2.215361   1.081722
    27  H    2.934896   2.226769   3.331369   3.324386   2.230467
    28  H    2.713746   4.168273   5.271355   6.430444   6.275148
    29  H    4.656587   5.862614   6.980960   7.991770   7.665897
    30  H    5.304292   6.002569   6.997052   7.712176   7.265123
    31  H    5.401759   5.448513   5.992068   6.399929   6.119928
    32  H    5.614346   5.644236   6.468901   6.718289   6.070866
    33  H    4.686638   4.117741   4.971781   4.766443   3.688166
    34  H    5.922347   4.737743   4.895446   3.995315   3.055801
    35  H    6.699936   5.582699   5.268661   4.549424   4.399546
    36  H    6.148716   5.568559   5.541403   5.499845   5.457371
                   11         12         13         14         15
    11  C    0.000000
    12  C    4.450639   0.000000
    13  C    5.354756   1.383424   0.000000
    14  C    5.237093   2.378781   1.383439   0.000000
    15  C    4.165930   2.720630   2.390680   1.390163   0.000000
    16  C    4.718640   4.226993   3.777616   2.514037   1.507392
    17  C    3.996314   4.972702   4.877321   3.788900   2.492120
    18  C    3.202268   5.235960   5.353609   4.449635   3.160017
    19  C    3.467464   6.370193   6.624905   5.755896   4.407293
    20  C    4.332285   6.781700   6.957153   5.992771   4.633832
    21  C    4.592219   6.005966   5.992988   4.929331   3.644756
    22  H    2.931571   2.734687   4.065761   4.725841   4.348199
    23  H    3.466091   2.834307   4.104181   4.663406   4.212275
    24  H    3.338183   5.216058   6.315827   6.434295   5.501372
    25  H    3.325835   7.015465   7.971557   7.757667   6.530912
    26  H    2.226458   6.637734   7.431610   7.089811   5.854841
    27  H    1.083138   4.330903   5.131944   5.030556   4.086663
    28  H    4.955492   1.078758   2.148573   3.367878   3.798604
    29  H    6.365333   2.145840   1.079514   2.145844   3.377317
    30  H    6.185652   3.367865   2.148570   1.078756   2.142697
    31  H    5.520178   4.663222   4.104360   2.834702   2.118507
    32  H    5.348494   4.725967   4.065620   2.734356   2.132824
    33  H    3.160337   5.028423   5.129838   4.329128   3.218862
    34  H    3.647139   7.088467   7.430320   6.636697   5.317186
    35  H    5.080822   7.758014   7.971875   7.015698   5.661881
    36  H    5.500182   6.435688   6.317195   5.217185   4.068694
                   16         17         18         19         20
    16  C    0.000000
    17  C    1.500911   0.000000
    18  C    2.591671   1.416719   0.000000
    19  C    3.740067   2.287254   1.413452   0.000000
    20  C    3.744831   2.284431   2.282032   1.405114   0.000000
    21  C    2.608071   1.415491   2.289884   2.284900   1.412803
    22  H    5.613921   5.643528   5.346451   6.068854   6.717391
    23  H    5.402384   5.449607   5.520226   6.120451   6.401616
    24  H    6.147497   5.568368   5.500520   5.458467   5.500882
    25  H    6.699590   5.582934   5.082437   4.401432   4.549762
    26  H    5.923591   4.738437   3.648821   3.055699   3.993534
    27  H    4.688404   4.118284   3.159875   3.686022   4.764728
    28  H    5.304302   6.002563   6.184478   7.264214   7.712323
    29  H    4.656587   5.862520   6.364137   7.665003   7.991871
    30  H    2.713759   4.168150   4.954598   6.274518   6.430503
    31  H    1.096031   2.135260   3.466065   4.404862   4.068146
    32  H    1.096330   2.150098   2.932165   4.157394   4.320959
    33  H    2.934852   2.226776   1.083135   2.230457   3.324384
    34  H    4.735283   3.328582   2.226422   1.081718   2.215367
    35  H    4.744489   3.326978   3.325827   2.219550   1.081503
    36  H    2.971670   2.233373   3.338196   3.331351   2.229798
                   21         22         23         24         25
    21  C    0.000000
    22  H    6.468856   0.000000
    23  H    5.994259   1.768557   0.000000
    24  H    5.541759   3.689989   2.655145   0.000000
    25  H    5.268210   5.316661   4.939266   2.678876   0.000000
    26  H    4.894492   5.051104   5.458237   4.334431   2.667346
    27  H    4.971458   3.001502   3.969019   4.343485   4.331996
    28  H    6.997873   2.613981   2.830402   5.439772   7.435961
    29  H    6.981678   4.808112   4.888284   7.243912   9.007719
    30  H    5.271838   5.792637   5.716685   7.424416   8.661257
    31  H    2.719051   6.254899   5.764332   6.436802   7.138257
    32  H    3.307496   6.245452   6.255687   7.133077   7.553943
    33  H    3.331372   5.117108   5.622407   5.940590   5.609412
    34  H    3.325093   6.464126   6.695104   5.861619   4.375949
    35  H    2.223688   7.553196   7.140288   5.890236   4.609800
    36  H    1.085184   7.133657   6.439560   5.967757   5.888832
                   26         27         28         29         30
    26  H    0.000000
    27  H    2.684460   0.000000
    28  H    7.181290   4.840190   0.000000
    29  H    8.466735   6.087321   2.490911   0.000000
    30  H    7.920517   5.933759   4.279017   2.490889   0.000000
    31  H    6.695110   5.623460   5.716465   4.888600   2.831244
    32  H    6.466863   5.120137   5.792785   4.807834   2.613294
    33  H    3.794112   2.752138   5.931542   6.085137   4.838632
    34  H    2.607754   3.790906   7.919045   8.465352   7.180370
    35  H    4.372993   5.607181   8.661639   9.008061   7.436198
    36  H    5.860124   5.940490   7.425899   7.245350   5.440822
                   31         32         33         34         35
    31  H    0.000000
    32  H    1.768579   0.000000
    33  H    3.969030   3.002482   0.000000
    34  H    5.458268   5.051577   2.684425   0.000000
    35  H    4.939360   5.316521   4.331997   2.667364   0.000000
    36  H    2.655243   3.689332   4.343501   4.334453   2.678902
                   36
    36  H    0.000000
 Stoichiometry    C17H15Cl2NZr
 Framework group  C1[X(C17H15Cl2NZr)]
 Deg. of freedom   102
 Full point group                 C1      NOp   1
 RotChk:  IX=0 Diff= 1.54D-15
 Largest Abelian subgroup         C1      NOp   1
 Largest concise Abelian subgroup C1      NOp   1
                         Standard orientation:                         
 ---------------------------------------------------------------------
 Center     Atomic      Atomic             Coordinates (Angstroms)
 Number     Number       Type             X           Y           Z
 ---------------------------------------------------------------------
      1         40           0        0.830820    0.000004    0.089195
      2         17           0        2.797426   -0.000573    1.433544
      3         17           0       -0.264844   -0.000745    2.189813
      4          7           0       -1.670390    0.000056   -0.241250
      5          6           0       -2.342112    1.149548   -0.131328
      6          6           0       -1.543252    2.427165   -0.173014
      7          6           0       -0.113002    2.180203   -0.555283
      8          6           0        1.034692    2.474349    0.219254
      9          6           0        2.170566    2.118663   -0.541847
     10          6           0        1.733379    1.566639   -1.757780
     11          6           0        0.320431    1.601602   -1.773655
     12          6           0       -3.720415    1.189196    0.045594
     13          6           0       -4.421989   -0.000275    0.128149
     14          6           0       -3.720080   -1.189584    0.045879
     15          6           0       -2.341793   -1.149616   -0.130993
     16          6           0       -1.542545   -2.427014   -0.172051
     17          6           0       -0.112696   -2.179866   -0.555695
     18          6           0        0.319392   -1.600666   -1.774268
     19          6           0        1.732329   -1.565362   -1.759771
     20          6           0        2.170864   -2.117777   -0.544505
     21          6           0        1.035833   -2.474159    0.217538
     22          1           0       -2.019060    3.122347   -0.874640
     23          1           0       -1.584818    2.882781    0.822957
     24          1           0        1.044628    2.983843    1.177347
     25          1           0        3.198784    2.305422   -0.263392
     26          1           0        2.369387    1.304782   -2.592674
     27          1           0       -0.313947    1.376677   -2.622278
     28          1           0       -4.225160    2.139261    0.125141
     29          1           0       -5.492728   -0.000413    0.265510
     30          1           0       -4.224586   -2.139755    0.125648
     31          1           0       -1.583120   -2.881550    0.824461
     32          1           0       -2.018695   -3.123105   -0.872536
     33          1           0       -0.315891   -1.375461   -2.622135
     34          1           0        2.367420   -1.302970   -2.595189
     35          1           0        3.199406   -2.304377   -0.267140
     36          1           0        1.046827   -2.983913    1.175481
 ---------------------------------------------------------------------
 Rotational constants (GHZ):      0.4148491      0.2659431      0.2258821
 Leave Link  202 at Mon Sep 15 12:51:24 2025, MaxMem=    33554432 cpu:         0.0
 (Enter /appl/g09.shchoi/G09Files/g09/l601.exe)
 Leave Link  601 at Mon Sep 15 12:51:24 2025, MaxMem=    33554432 cpu:         0.0
 (Enter /appl/g09.shchoi/G09Files/g09/l9999.exe)
 1\1\GINC-MASTER\FOpt\RExternal='/home/rxn_grp/programs/xtb-gaussian'\Z
 DO\C17H15Cl2N1Zr1\RXN_GRP\15-Sep-2025\0\\#p external='/home/rxn_grp/pr
 ograms/xtb-gaussian' /sdd opt(nomicro)\\R\\0,1\Zr,0.0215349022,0.09432
 46906,-0.3422206019\Cl,0.7318755867,0.2189994865,-2.6126142191\Cl,2.33
 45993628,0.3521634864,0.1008672186\N,0.4293213596,0.0940249763,2.14754
 90185\C,0.5958751702,1.2585258411,2.7806535814\C,0.1791878867,2.510632
 954,2.0520804143\C,-0.5686600514,2.1997230007,0.7884373095\C,-0.197395
 9941,2.5638159915,-0.5280847208\C,-1.2079138532,2.1057050683,-1.402719
 0305\C,-2.1742451928,1.4239017369,-0.6439662715\C,-1.7855396942,1.4781
 098854,0.7139242366\C,1.1573082448,1.339081599,4.0498650691\C,1.574657
 3489,0.1777651052,4.6751850801\C,1.4302412585,-1.023553044,4.004453489
 \C,0.8597318704,-1.0250258953,2.7367505694\C,0.7364970911,-2.310554891
 9,1.9592815819\C,-0.0691977214,-2.1308552552,0.7057676455\C,-1.4186385
 826,-1.7025148301,0.6545063217\C,-1.8167074528,-1.6870911375,-0.701646
 6794\C,-0.7247603992,-2.1023408271,-1.4823937524\C,0.3680581979,-2.351
 3765717,-0.6223111639\H,-0.4301295778,3.1274317136,2.7230809796\H,1.08
 56650232,3.0785560863,1.813262174\H,0.6520344974,3.180109699,-0.804264
 4183\H,-1.2614060074,2.3077757496,-2.4638287361\H,-3.1213945252,1.0580
 196406,-1.0170092214\H,-2.3833163758,1.1664891709,1.5617110617\H,1.269
 6633808,2.2994884572,4.5281051207\H,2.0142785128,0.2096055409,5.660614
 3414\H,1.7606270656,-1.950484434,4.4464474581\H,1.7475636442,-2.646569
 5166,1.7021375439\H,0.2878913487,-3.0754652936,2.6039559862\H,-2.06704
 90842,-1.5669547038,1.5114588819\H,-2.8242032032,-1.532322461,-1.06374
 15908\H,-0.7365712215,-2.2712288488,-2.5505634523\H,1.3339101078,-2.74
 74584711,-0.9187451731\\Version=ES64L-G09RevD.01\HF=-57.9163336\RMSD=0
 .000e+00\RMSF=2.304e-06\Dipole=-1.3071004,-0.2109328,3.2070492\PG=C01 
 [X(C17H15Cl2N1Zr1)]\\@


 EDUCATION DOESN'T COST 
           ... IT PAYS!

 -- POSTMARK, UNIV. OF MISSISSIPPI, DEC 78
 Job cpu time:       0 days  0 hours  0 minutes  3.6 seconds.
 File lengths (MBytes):  RWF=     10 Int=      0 D2E=      0 Chk=      3 Scr=      1
 Normal termination of Gaussian 09 at Mon Sep 15 12:51:25 2025.
