 Entering Gaussian System, Link 0=g09
 Input=final_relax_5.com
 Output=final_relax_5.log
 Initial command:
 /appl/g09.shchoi/G09Files/g09/l1.exe "/home/rxn_grp/scratch/Gau-2487329.inp" -scrdir="/home/rxn_grp/scratch/"
 Entering Link 1 = /appl/g09.shchoi/G09Files/g09/l1.exe PID=   2487331.
  
 Copyright (c) 1988,1990,1992,1993,1995,1998,2003,2009,2013,
            Gaussian, Inc.  All Rights Reserved.
  
 This is part of the Gaussian(R) 09 program.  It is based on
 the Gaussian(R) 03 system (copyright 2003, Gaussian, Inc.),
 the Gaussian(R) 98 system (copyright 1998, Gaussian, Inc.),
 the Gaussian(R) 94 system (copyright 1995, Gaussian, Inc.),
 the Gaussian 92(TM) system (copyright 1992, Gaussian, Inc.),
 the Gaussian 90(TM) system (copyright 1990, Gaussian, Inc.),
 the Gaussian 88(TM) system (copyright 1988, Gaussian, Inc.),
 the Gaussian 86(TM) system (copyright 1986, Carnegie Mellon
 University), and the Gaussian 82(TM) system (copyright 1983,
 Carnegie Mellon University). Gaussian is a federally registered
 trademark of Gaussian, Inc.
  
 This software contains proprietary and confidential information,
 including trade secrets, belonging to Gaussian, Inc.
  
 This software is provided under written license and may be
 used, copied, transmitted, or stored only in accord with that
 written license.
  
 The following legend is applicable only to US Government
 contracts under FAR:
  
                    RESTRICTED RIGHTS LEGEND
  
 Use, reproduction and disclosure by the US Government is
 subject to restrictions as set forth in subparagraphs (a)
 and (c) of the Commercial Computer Software - Restricted
 Rights clause in FAR 52.227-19.
  
 Gaussian, Inc.
 340 Quinnipiac St., Bldg. 40, Wallingford CT 06492
  
  
 ---------------------------------------------------------------
 Warning -- This program may not be used in any manner that
 competes with the business of Gaussian, Inc. or will provide
 assistance to any competitor of Gaussian, Inc.  The licensee
 of this program is prohibited from giving any competitor of
 Gaussian, Inc. access to this program.  By using this program,
 the user acknowledges that Gaussian, Inc. is engaged in the
 business of creating and licensing software in the field of
 computational chemistry and represents and warrants to the
 licensee that it is not a competitor of Gaussian, Inc. and that
 it will not use this program in any manner prohibited above.
 ---------------------------------------------------------------
  

 Cite this work as:
 Gaussian 09, Revision D.01,
 M. J. Frisch, G. W. Trucks, H. B. Schlegel, G. E. Scuseria, 
 M. A. Robb, J. R. Cheeseman, G. Scalmani, V. Barone, B. Mennucci, 
 G. A. Petersson, H. Nakatsuji, M. Caricato, X. Li, H. P. Hratchian, 
 A. F. Izmaylov, J. Bloino, G. Zheng, J. L. Sonnenberg, M. Hada, 
 M. Ehara, K. Toyota, R. Fukuda, J. Hasegawa, M. Ishida, T. Nakajima, 
 Y. Honda, O. Kitao, H. Nakai, T. Vreven, J. A. Montgomery, Jr., 
 J. E. Peralta, F. Ogliaro, M. Bearpark, J. J. Heyd, E. Brothers, 
 K. N. Kudin, V. N. Staroverov, T. Keith, R. Kobayashi, J. Normand, 
 K. Raghavachari, A. Rendell, J. C. Burant, S. S. Iyengar, J. Tomasi, 
 M. Cossi, N. Rega, J. M. Millam, M. Klene, J. E. Knox, J. B. Cross, 
 V. Bakken, C. Adamo, J. Jaramillo, R. Gomperts, R. E. Stratmann, 
 O. Yazyev, A. J. Austin, R. Cammi, C. Pomelli, J. W. Ochterski, 
 R. L. Martin, K. Morokuma, V. G. Zakrzewski, G. A. Voth, 
 P. Salvador, J. J. Dannenberg, S. Dapprich, A. D. Daniels, 
 O. Farkas, J. B. Foresman, J. V. Ortiz, J. Cioslowski, 
 and D. J. Fox, Gaussian, Inc., Wallingford CT, 2013.
 
 ******************************************
 Gaussian 09:  ES64L-G09RevD.01 24-Apr-2013
                15-Sep-2025 
 ******************************************
 -------------------------------------------------------------------
 #p external='/home/rxn_grp/programs/xtb-gaussian' /sdd opt(nomicro)
 -------------------------------------------------------------------
 1/14=-1,18=20,19=15,26=1,38=1/1,3;
 2/9=110,12=2,17=6,18=5,40=1/2;
 3/5=17,6=7,11=9,16=1,25=1,30=1,41=9900000,43=2,71=1/1;
 4/20=17,22=1,24=3,113=1,114=1/2;
 6/7=2,8=2,9=2,10=2/1;
 7/44=-1/16;
 1/14=-1,18=20,19=15,26=1/3(2);
 2/9=110/2;
 99//99;
 2/9=110/2;
 3/5=17,6=7,11=9,16=1,25=1,30=1,41=9900000,43=2,71=1/1;
 4/16=2,20=17,22=1,24=3,113=1,114=1/2;
 7/44=-1/16;
 1/14=-1,18=20,19=15,26=1/3(-4);
 2/9=110/2;
 6/7=2,8=2,9=2,10=2/1;
 99//99;
 Leave Link    1 at Mon Sep 15 12:51:26 2025, MaxMem=           0 cpu:         0.0
 (Enter /appl/g09.shchoi/G09Files/g09/l101.exe)
 -
 R
 -
 Symbolic Z-matrix:
 Charge =  0 Multiplicity = 1
 Zr                    0.00011  -0.00075  -0.00025 
 Cl                    0.00012   0.       -2.49284 
 Cl                    2.49298  -0.00027   0.00022 
 N                    -0.00613   0.00184   2.21142 
 C                    -0.85852   0.71457   2.96701 
 C                    -1.01148   2.13158   2.53229 
 C                    -0.78548   2.19786   1.02353 
 C                     0.30491   2.8864    0.56137 
 C                     0.10267   3.01919  -0.93445 
 C                    -1.20458   2.69692  -1.21694 
 C                    -1.86244   2.29747   0.02722 
 C                    -1.61022   0.14561   3.98656 
 C                    -1.55236  -1.22759   4.18633 
 C                    -0.79972  -1.98771   3.31313 
 C                    -0.04893  -1.34448   2.32349 
 C                     0.68911  -2.06359   1.28666 
 C                     0.12508  -1.91438  -0.37383 
 C                     0.19763  -3.32628  -0.67549 
 C                    -1.07452  -3.49974   0.04162 
 C                    -2.18621  -2.23136   0.06307 
 C                    -1.29957  -1.78092  -0.80334 
 H                    -0.24229   2.7427    3.01643 
 H                    -1.98727   2.5239    2.82942 
 H                     1.21867   3.12887   1.08306 
 H                     0.83041   3.4351   -1.60966 
 H                    -1.69963   2.78252  -2.16924 
 H                    -2.88821   1.97708   0.15232 
 H                    -2.2483    0.77059   4.59047 
 H                    -2.12634  -1.69466   4.97174 
 H                    -0.7857   -3.06451   3.37849 
 H                     0.78673  -3.12318   1.5247 
 H                     1.70821  -1.65609   1.20262 
 H                     0.7092   -3.98391  -1.34075 
 H                    -1.51918  -4.47717   0.232 
 H                    -3.22514  -2.40354  -0.10874 
 H                    -1.57391  -1.27824  -1.74595 
 
 NAtoms=     36 NQM=       36 NQMF=       0 NMMI=      0 NMMIF=      0
                NMic=       0 NMicF=      0.
                    Isotopes and Nuclear Properties:
 (Nuclear quadrupole moments (NQMom) in fm**2, nuclear magnetic moments (NMagM)
  in nuclear magnetons)

  Atom         1           2           3           4           5           6           7           8           9          10
 IAtWgt=          90          35          35          14          12          12          12          12          12          12
 AtmWgt=  89.9043000  34.9688527  34.9688527  14.0030740  12.0000000  12.0000000  12.0000000  12.0000000  12.0000000  12.0000000
 NucSpn=           0           3           3           2           0           0           0           0           0           0
 AtZEff=   0.0000000   0.0000000   0.0000000   0.0000000   0.0000000   0.0000000   0.0000000   0.0000000   0.0000000   0.0000000
 NQMom=    0.0000000  -8.1650000  -8.1650000   2.0440000   0.0000000   0.0000000   0.0000000   0.0000000   0.0000000   0.0000000
 NMagM=    0.0000000   0.8218740   0.8218740   0.4037610   0.0000000   0.0000000   0.0000000   0.0000000   0.0000000   0.0000000
 AtZNuc=  40.0000000  17.0000000  17.0000000   7.0000000   6.0000000   6.0000000   6.0000000   6.0000000   6.0000000   6.0000000

  Atom        11          12          13          14          15          16          17          18          19          20
 IAtWgt=          12          12          12          12          12          12          12          12          12          12
 AtmWgt=  12.0000000  12.0000000  12.0000000  12.0000000  12.0000000  12.0000000  12.0000000  12.0000000  12.0000000  12.0000000
 NucSpn=           0           0           0           0           0           0           0           0           0           0
 AtZEff=   0.0000000   0.0000000   0.0000000   0.0000000   0.0000000   0.0000000   0.0000000   0.0000000   0.0000000   0.0000000
 NQMom=    0.0000000   0.0000000   0.0000000   0.0000000   0.0000000   0.0000000   0.0000000   0.0000000   0.0000000   0.0000000
 NMagM=    0.0000000   0.0000000   0.0000000   0.0000000   0.0000000   0.0000000   0.0000000   0.0000000   0.0000000   0.0000000
 AtZNuc=   6.0000000   6.0000000   6.0000000   6.0000000   6.0000000   6.0000000   6.0000000   6.0000000   6.0000000   6.0000000

  Atom        21          22          23          24          25          26          27          28          29          30
 IAtWgt=          12           1           1           1           1           1           1           1           1           1
 AtmWgt=  12.0000000   1.0078250   1.0078250   1.0078250   1.0078250   1.0078250   1.0078250   1.0078250   1.0078250   1.0078250
 NucSpn=           0           1           1           1           1           1           1           1           1           1
 AtZEff=   0.0000000   0.0000000   0.0000000   0.0000000   0.0000000   0.0000000   0.0000000   0.0000000   0.0000000   0.0000000
 NQMom=    0.0000000   0.0000000   0.0000000   0.0000000   0.0000000   0.0000000   0.0000000   0.0000000   0.0000000   0.0000000
 NMagM=    0.0000000   2.7928460   2.7928460   2.7928460   2.7928460   2.7928460   2.7928460   2.7928460   2.7928460   2.7928460
 AtZNuc=   6.0000000   1.0000000   1.0000000   1.0000000   1.0000000   1.0000000   1.0000000   1.0000000   1.0000000   1.0000000

  Atom        31          32          33          34          35          36
 IAtWgt=           1           1           1           1           1           1
 AtmWgt=   1.0078250   1.0078250   1.0078250   1.0078250   1.0078250   1.0078250
 NucSpn=           1           1           1           1           1           1
 AtZEff=   0.0000000   0.0000000   0.0000000   0.0000000   0.0000000   0.0000000
 NQMom=    0.0000000   0.0000000   0.0000000   0.0000000   0.0000000   0.0000000
 NMagM=    2.7928460   2.7928460   2.7928460   2.7928460   2.7928460   2.7928460
 AtZNuc=   1.0000000   1.0000000   1.0000000   1.0000000   1.0000000   1.0000000
 Leave Link  101 at Mon Sep 15 12:51:26 2025, MaxMem=    33554432 cpu:         0.0
 (Enter /appl/g09.shchoi/G09Files/g09/l103.exe)

 GradGradGradGradGradGradGradGradGradGradGradGradGradGradGradGradGradGrad
 Berny optimization.
 Initialization pass.
                           ----------------------------
                           !    Initial Parameters    !
                           ! (Angstroms and Degrees)  !
 --------------------------                            --------------------------
 ! Name  Definition              Value          Derivative Info.                !
 --------------------------------------------------------------------------------
 ! R1    R(1,2)                  2.4926         estimate D2E/DX2                !
 ! R2    R(1,3)                  2.4929         estimate D2E/DX2                !
 ! R3    R(1,4)                  2.2117         estimate D2E/DX2                !
 ! R4    R(1,7)                  2.5493         estimate D2E/DX2                !
 ! R5    R(1,16)                 2.5271         estimate D2E/DX2                !
 ! R6    R(1,17)                 1.9538         estimate D2E/DX2                !
 ! R7    R(1,21)                 2.3459         estimate D2E/DX2                !
 ! R8    R(4,5)                  1.3437         estimate D2E/DX2                !
 ! R9    R(4,15)                 1.3517         estimate D2E/DX2                !
 ! R10   R(5,6)                  1.4901         estimate D2E/DX2                !
 ! R11   R(5,12)                 1.3886         estimate D2E/DX2                !
 ! R12   R(6,7)                  1.527          estimate D2E/DX2                !
 ! R13   R(6,22)                 1.0952         estimate D2E/DX2                !
 ! R14   R(6,23)                 1.0929         estimate D2E/DX2                !
 ! R15   R(7,8)                  1.3699         estimate D2E/DX2                !
 ! R16   R(7,11)                 1.4705         estimate D2E/DX2                !
 ! R17   R(8,9)                  1.5153         estimate D2E/DX2                !
 ! R18   R(8,24)                 1.0798         estimate D2E/DX2                !
 ! R19   R(9,10)                 1.3757         estimate D2E/DX2                !
 ! R20   R(9,25)                 1.0763         estimate D2E/DX2                !
 ! R21   R(10,11)                1.463          estimate D2E/DX2                !
 ! R22   R(10,26)                1.0767         estimate D2E/DX2                !
 ! R23   R(11,27)                1.0819         estimate D2E/DX2                !
 ! R24   R(12,13)                1.3889         estimate D2E/DX2                !
 ! R25   R(12,28)                1.0782         estimate D2E/DX2                !
 ! R26   R(13,14)                1.3808         estimate D2E/DX2                !
 ! R27   R(13,29)                1.0791         estimate D2E/DX2                !
 ! R28   R(14,15)                1.3989         estimate D2E/DX2                !
 ! R29   R(14,30)                1.0789         estimate D2E/DX2                !
 ! R30   R(15,16)                1.4618         estimate D2E/DX2                !
 ! R31   R(16,17)                1.76           estimate D2E/DX2                !
 ! R32   R(16,31)                1.0904         estimate D2E/DX2                !
 ! R33   R(16,32)                1.1008         estimate D2E/DX2                !
 ! R34   R(17,18)                1.4456         estimate D2E/DX2                !
 ! R35   R(17,21)                1.494          estimate D2E/DX2                !
 ! R36   R(18,19)                1.4706         estimate D2E/DX2                !
 ! R37   R(18,33)                1.0662         estimate D2E/DX2                !
 ! R38   R(19,20)                1.6867         estimate D2E/DX2                !
 ! R39   R(19,34)                1.0906         estimate D2E/DX2                !
 ! R40   R(20,21)                1.319          estimate D2E/DX2                !
 ! R41   R(20,35)                1.067          estimate D2E/DX2                !
 ! R42   R(21,36)                1.1029         estimate D2E/DX2                !
 ! A1    A(2,1,3)               90.0108         estimate D2E/DX2                !
 ! A2    A(2,1,7)              113.6609         estimate D2E/DX2                !
 ! A3    A(2,1,16)             120.6301         estimate D2E/DX2                !
 ! A4    A(2,1,17)              78.9939         estimate D2E/DX2                !
 ! A5    A(2,1,21)              69.9944         estimate D2E/DX2                !
 ! A6    A(3,1,4)               90.1508         estimate D2E/DX2                !
 ! A7    A(3,1,7)              107.9334         estimate D2E/DX2                !
 ! A8    A(3,1,16)              74.1818         estimate D2E/DX2                !
 ! A9    A(3,1,17)              86.3457         estimate D2E/DX2                !
 ! A10   A(3,1,21)             123.6585         estimate D2E/DX2                !
 ! A11   A(4,1,7)               66.2051         estimate D2E/DX2                !
 ! A12   A(4,1,16)              59.5014         estimate D2E/DX2                !
 ! A13   A(4,1,17)             101.101          estimate D2E/DX2                !
 ! A14   A(4,1,21)             109.9785         estimate D2E/DX2                !
 ! A15   A(7,1,16)             125.697          estimate D2E/DX2                !
 ! A16   A(7,1,17)             160.2553         estimate D2E/DX2                !
 ! A17   A(7,1,21)             128.4039         estimate D2E/DX2                !
 ! A18   A(16,1,21)             72.8993         estimate D2E/DX2                !
 ! A19   A(1,4,5)              124.3844         estimate D2E/DX2                !
 ! A20   A(1,4,15)              94.6942         estimate D2E/DX2                !
 ! A21   A(5,4,15)             117.4918         estimate D2E/DX2                !
 ! A22   A(4,5,6)              113.9216         estimate D2E/DX2                !
 ! A23   A(4,5,12)             122.6123         estimate D2E/DX2                !
 ! A24   A(6,5,12)             123.2488         estimate D2E/DX2                !
 ! A25   A(5,6,7)              108.321          estimate D2E/DX2                !
 ! A26   A(5,6,22)             109.2427         estimate D2E/DX2                !
 ! A27   A(5,6,23)             110.7152         estimate D2E/DX2                !
 ! A28   A(7,6,22)             107.9746         estimate D2E/DX2                !
 ! A29   A(7,6,23)             112.6557         estimate D2E/DX2                !
 ! A30   A(22,6,23)            107.8527         estimate D2E/DX2                !
 ! A31   A(1,7,6)              113.8881         estimate D2E/DX2                !
 ! A32   A(1,7,8)               93.0217         estimate D2E/DX2                !
 ! A33   A(1,7,11)              90.6887         estimate D2E/DX2                !
 ! A34   A(6,7,8)              118.2258         estimate D2E/DX2                !
 ! A35   A(6,7,11)             124.3306         estimate D2E/DX2                !
 ! A36   A(8,7,11)             108.6823         estimate D2E/DX2                !
 ! A37   A(7,8,9)              105.7149         estimate D2E/DX2                !
 ! A38   A(7,8,24)             128.5687         estimate D2E/DX2                !
 ! A39   A(9,8,24)             124.7654         estimate D2E/DX2                !
 ! A40   A(8,9,10)             107.9993         estimate D2E/DX2                !
 ! A41   A(8,9,25)             124.2569         estimate D2E/DX2                !
 ! A42   A(10,9,25)            127.1701         estimate D2E/DX2                !
 ! A43   A(9,10,11)            108.4592         estimate D2E/DX2                !
 ! A44   A(9,10,26)            126.8634         estimate D2E/DX2                !
 ! A45   A(11,10,26)           124.5501         estimate D2E/DX2                !
 ! A46   A(7,11,10)            105.3883         estimate D2E/DX2                !
 ! A47   A(7,11,27)            126.5824         estimate D2E/DX2                !
 ! A48   A(10,11,27)           127.2674         estimate D2E/DX2                !
 ! A49   A(5,12,13)            119.2198         estimate D2E/DX2                !
 ! A50   A(5,12,28)            119.6117         estimate D2E/DX2                !
 ! A51   A(13,12,28)           121.1461         estimate D2E/DX2                !
 ! A52   A(12,13,14)           118.4257         estimate D2E/DX2                !
 ! A53   A(12,13,29)           120.6953         estimate D2E/DX2                !
 ! A54   A(14,13,29)           120.7918         estimate D2E/DX2                !
 ! A55   A(13,14,15)           119.1306         estimate D2E/DX2                !
 ! A56   A(13,14,30)           121.2111         estimate D2E/DX2                !
 ! A57   A(15,14,30)           119.6575         estimate D2E/DX2                !
 ! A58   A(4,15,14)            122.253          estimate D2E/DX2                !
 ! A59   A(4,15,16)            114.5317         estimate D2E/DX2                !
 ! A60   A(14,15,16)           123.1322         estimate D2E/DX2                !
 ! A61   A(1,16,15)             79.7458         estimate D2E/DX2                !
 ! A62   A(1,16,31)            158.2524         estimate D2E/DX2                !
 ! A63   A(1,16,32)             84.9137         estimate D2E/DX2                !
 ! A64   A(15,16,17)           117.7539         estimate D2E/DX2                !
 ! A65   A(15,16,31)           111.6174         estimate D2E/DX2                !
 ! A66   A(15,16,32)           109.844          estimate D2E/DX2                !
 ! A67   A(17,16,31)           108.484          estimate D2E/DX2                !
 ! A68   A(17,16,32)           101.1443         estimate D2E/DX2                !
 ! A69   A(31,16,32)           107.0695         estimate D2E/DX2                !
 ! A70   A(16,17,18)            95.6235         estimate D2E/DX2                !
 ! A71   A(16,17,21)           125.7621         estimate D2E/DX2                !
 ! A72   A(18,17,21)            94.308          estimate D2E/DX2                !
 ! A73   A(17,18,19)            88.2827         estimate D2E/DX2                !
 ! A74   A(17,18,33)           139.1755         estimate D2E/DX2                !
 ! A75   A(19,18,33)           130.2837         estimate D2E/DX2                !
 ! A76   A(18,19,20)           119.1854         estimate D2E/DX2                !
 ! A77   A(18,19,34)           122.9255         estimate D2E/DX2                !
 ! A78   A(20,19,34)           113.7664         estimate D2E/DX2                !
 ! A79   A(19,20,21)            78.7792         estimate D2E/DX2                !
 ! A80   A(19,20,35)           121.221          estimate D2E/DX2                !
 ! A81   A(21,20,35)           127.1461         estimate D2E/DX2                !
 ! A82   A(1,21,20)            113.9979         estimate D2E/DX2                !
 ! A83   A(1,21,36)             94.8489         estimate D2E/DX2                !
 ! A84   A(17,21,20)           114.9397         estimate D2E/DX2                !
 ! A85   A(17,21,36)           121.5755         estimate D2E/DX2                !
 ! A86   A(20,21,36)           123.3562         estimate D2E/DX2                !
 ! A87   L(2,1,4,3,-1)         180.1616         estimate D2E/DX2                !
 ! A88   L(1,17,18,13,-1)      180.679          estimate D2E/DX2                !
 ! A89   L(2,1,4,3,-2)         179.9154         estimate D2E/DX2                !
 ! A90   L(1,17,18,13,-2)      178.8397         estimate D2E/DX2                !
 ! D1    D(3,1,4,5)            140.0526         estimate D2E/DX2                !
 ! D2    D(3,1,4,15)           -91.8184         estimate D2E/DX2                !
 ! D3    D(7,1,4,5)             30.4584         estimate D2E/DX2                !
 ! D4    D(7,1,4,15)           158.5874         estimate D2E/DX2                !
 ! D5    D(16,1,4,5)          -148.4837         estimate D2E/DX2                !
 ! D6    D(16,1,4,15)          -20.3548         estimate D2E/DX2                !
 ! D7    D(17,1,4,5)          -133.6418         estimate D2E/DX2                !
 ! D8    D(17,1,4,15)           -5.5129         estimate D2E/DX2                !
 ! D9    D(21,1,4,5)           -93.7414         estimate D2E/DX2                !
 ! D10   D(21,1,4,15)           34.3876         estimate D2E/DX2                !
 ! D11   D(2,1,7,6)            170.3115         estimate D2E/DX2                !
 ! D12   D(2,1,7,8)            -66.9125         estimate D2E/DX2                !
 ! D13   D(2,1,7,11)            41.8366         estimate D2E/DX2                !
 ! D14   D(3,1,7,6)            -91.5238         estimate D2E/DX2                !
 ! D15   D(3,1,7,8)             31.2522         estimate D2E/DX2                !
 ! D16   D(3,1,7,11)           140.0013         estimate D2E/DX2                !
 ! D17   D(4,1,7,6)             -9.5533         estimate D2E/DX2                !
 ! D18   D(4,1,7,8)            113.2227         estimate D2E/DX2                !
 ! D19   D(4,1,7,11)          -138.0282         estimate D2E/DX2                !
 ! D20   D(16,1,7,6)            -8.4309         estimate D2E/DX2                !
 ! D21   D(16,1,7,8)           114.3452         estimate D2E/DX2                !
 ! D22   D(16,1,7,11)         -136.9058         estimate D2E/DX2                !
 ! D23   D(17,1,7,6)            43.1734         estimate D2E/DX2                !
 ! D24   D(17,1,7,8)           165.9494         estimate D2E/DX2                !
 ! D25   D(17,1,7,11)          -85.3015         estimate D2E/DX2                !
 ! D26   D(21,1,7,6)            87.7407         estimate D2E/DX2                !
 ! D27   D(21,1,7,8)          -149.4833         estimate D2E/DX2                !
 ! D28   D(21,1,7,11)          -40.7342         estimate D2E/DX2                !
 ! D29   D(2,1,16,15)         -160.8422         estimate D2E/DX2                !
 ! D30   D(2,1,16,31)          -36.9977         estimate D2E/DX2                !
 ! D31   D(2,1,16,32)           87.9079         estimate D2E/DX2                !
 ! D32   D(3,1,16,15)          118.8017         estimate D2E/DX2                !
 ! D33   D(3,1,16,31)         -117.3538         estimate D2E/DX2                !
 ! D34   D(3,1,16,32)            7.5518         estimate D2E/DX2                !
 ! D35   D(4,1,16,15)           19.011          estimate D2E/DX2                !
 ! D36   D(4,1,16,31)          142.8555         estimate D2E/DX2                !
 ! D37   D(4,1,16,32)          -92.2389         estimate D2E/DX2                !
 ! D38   D(7,1,16,15)           17.8191         estimate D2E/DX2                !
 ! D39   D(7,1,16,31)          141.6636         estimate D2E/DX2                !
 ! D40   D(7,1,16,32)          -93.4308         estimate D2E/DX2                !
 ! D41   D(21,1,16,15)        -107.579          estimate D2E/DX2                !
 ! D42   D(21,1,16,31)          16.2655         estimate D2E/DX2                !
 ! D43   D(21,1,16,32)         141.1711         estimate D2E/DX2                !
 ! D44   D(2,1,18,19)         -119.4311         estimate D2E/DX2                !
 ! D45   D(2,1,18,33)           42.4534         estimate D2E/DX2                !
 ! D46   D(3,1,18,19)          149.8855         estimate D2E/DX2                !
 ! D47   D(3,1,18,33)          -48.23           estimate D2E/DX2                !
 ! D48   D(4,1,18,19)           60.4094         estimate D2E/DX2                !
 ! D49   D(4,1,18,33)         -137.7061         estimate D2E/DX2                !
 ! D50   D(7,1,18,19)           11.0543         estimate D2E/DX2                !
 ! D51   D(7,1,18,33)          172.9388         estimate D2E/DX2                !
 ! D52   D(2,1,21,20)         -158.0356         estimate D2E/DX2                !
 ! D53   D(2,1,21,36)          -28.1098         estimate D2E/DX2                !
 ! D54   D(3,1,21,20)          125.9802         estimate D2E/DX2                !
 ! D55   D(3,1,21,36)         -104.094          estimate D2E/DX2                !
 ! D56   D(4,1,21,20)           21.7725         estimate D2E/DX2                !
 ! D57   D(4,1,21,36)          151.6983         estimate D2E/DX2                !
 ! D58   D(7,1,21,20)          -53.1791         estimate D2E/DX2                !
 ! D59   D(7,1,21,36)           76.7467         estimate D2E/DX2                !
 ! D60   D(16,1,21,20)          69.1753         estimate D2E/DX2                !
 ! D61   D(16,1,21,36)        -160.8989         estimate D2E/DX2                !
 ! D62   D(1,4,5,6)            -46.4943         estimate D2E/DX2                !
 ! D63   D(1,4,5,12)           128.3058         estimate D2E/DX2                !
 ! D64   D(15,4,5,6)          -164.392          estimate D2E/DX2                !
 ! D65   D(15,4,5,12)           10.408          estimate D2E/DX2                !
 ! D66   D(1,4,15,14)         -142.0634         estimate D2E/DX2                !
 ! D67   D(1,4,15,16)           34.7175         estimate D2E/DX2                !
 ! D68   D(5,4,15,14)           -9.1021         estimate D2E/DX2                !
 ! D69   D(5,4,15,16)          167.6788         estimate D2E/DX2                !
 ! D70   D(4,5,6,7)             29.6788         estimate D2E/DX2                !
 ! D71   D(4,5,6,22)           -87.7016         estimate D2E/DX2                !
 ! D72   D(4,5,6,23)           153.6675         estimate D2E/DX2                !
 ! D73   D(12,5,6,7)          -145.0836         estimate D2E/DX2                !
 ! D74   D(12,5,6,22)           97.536          estimate D2E/DX2                !
 ! D75   D(12,5,6,23)          -21.095          estimate D2E/DX2                !
 ! D76   D(4,5,12,13)           -4.293          estimate D2E/DX2                !
 ! D77   D(4,5,12,28)          177.4083         estimate D2E/DX2                !
 ! D78   D(6,5,12,13)          170.0217         estimate D2E/DX2                !
 ! D79   D(6,5,12,28)           -8.2769         estimate D2E/DX2                !
 ! D80   D(5,6,7,1)             -6.7895         estimate D2E/DX2                !
 ! D81   D(5,6,7,8)           -114.4373         estimate D2E/DX2                !
 ! D82   D(5,6,7,11)           101.7757         estimate D2E/DX2                !
 ! D83   D(22,6,7,1)           111.4013         estimate D2E/DX2                !
 ! D84   D(22,6,7,8)             3.7534         estimate D2E/DX2                !
 ! D85   D(22,6,7,11)         -140.0335         estimate D2E/DX2                !
 ! D86   D(23,6,7,1)          -129.6079         estimate D2E/DX2                !
 ! D87   D(23,6,7,8)           122.7442         estimate D2E/DX2                !
 ! D88   D(23,6,7,11)          -21.0427         estimate D2E/DX2                !
 ! D89   D(1,7,8,9)             72.1913         estimate D2E/DX2                !
 ! D90   D(1,7,8,24)           -96.918          estimate D2E/DX2                !
 ! D91   D(6,7,8,9)           -168.5616         estimate D2E/DX2                !
 ! D92   D(6,7,8,24)            22.3291         estimate D2E/DX2                !
 ! D93   D(11,7,8,9)           -19.5597         estimate D2E/DX2                !
 ! D94   D(11,7,8,24)          171.3311         estimate D2E/DX2                !
 ! D95   D(1,7,11,10)          -75.1059         estimate D2E/DX2                !
 ! D96   D(1,7,11,27)           95.4344         estimate D2E/DX2                !
 ! D97   D(6,7,11,10)          164.9853         estimate D2E/DX2                !
 ! D98   D(6,7,11,27)          -24.4744         estimate D2E/DX2                !
 ! D99   D(8,7,11,10)           18.3175         estimate D2E/DX2                !
 ! D100  D(8,7,11,27)         -171.1422         estimate D2E/DX2                !
 ! D101  D(7,8,9,10)            13.9478         estimate D2E/DX2                !
 ! D102  D(7,8,9,25)          -174.2068         estimate D2E/DX2                !
 ! D103  D(24,8,9,10)         -176.4116         estimate D2E/DX2                !
 ! D104  D(24,8,9,25)           -4.5662         estimate D2E/DX2                !
 ! D105  D(8,9,10,11)           -2.4874         estimate D2E/DX2                !
 ! D106  D(8,9,10,26)          173.534          estimate D2E/DX2                !
 ! D107  D(25,9,10,11)        -174.0269         estimate D2E/DX2                !
 ! D108  D(25,9,10,26)           1.9944         estimate D2E/DX2                !
 ! D109  D(9,10,11,7)           -9.0304         estimate D2E/DX2                !
 ! D110  D(9,10,11,27)        -179.4845         estimate D2E/DX2                !
 ! D111  D(26,10,11,7)         174.8343         estimate D2E/DX2                !
 ! D112  D(26,10,11,27)          4.3801         estimate D2E/DX2                !
 ! D113  D(5,12,13,14)          -3.3905         estimate D2E/DX2                !
 ! D114  D(5,12,13,29)         179.98           estimate D2E/DX2                !
 ! D115  D(28,12,13,14)        174.8812         estimate D2E/DX2                !
 ! D116  D(28,12,13,29)         -1.7483         estimate D2E/DX2                !
 ! D117  D(12,13,14,15)          4.5692         estimate D2E/DX2                !
 ! D118  D(12,13,14,30)       -175.1093         estimate D2E/DX2                !
 ! D119  D(29,13,14,15)       -178.8048         estimate D2E/DX2                !
 ! D120  D(29,13,14,30)          1.5168         estimate D2E/DX2                !
 ! D121  D(13,14,15,4)           1.7286         estimate D2E/DX2                !
 ! D122  D(13,14,15,16)       -174.774          estimate D2E/DX2                !
 ! D123  D(30,14,15,4)        -178.5879         estimate D2E/DX2                !
 ! D124  D(30,14,15,16)          4.9095         estimate D2E/DX2                !
 ! D125  D(4,15,16,1)          -30.3206         estimate D2E/DX2                !
 ! D126  D(4,15,16,17)         -64.5569         estimate D2E/DX2                !
 ! D127  D(4,15,16,31)         169.0099         estimate D2E/DX2                !
 ! D128  D(4,15,16,32)          50.4103         estimate D2E/DX2                !
 ! D129  D(14,15,16,1)         146.4284         estimate D2E/DX2                !
 ! D130  D(14,15,16,17)        112.1921         estimate D2E/DX2                !
 ! D131  D(14,15,16,31)        -14.2411         estimate D2E/DX2                !
 ! D132  D(14,15,16,32)       -132.8406         estimate D2E/DX2                !
 ! D133  D(15,16,17,18)       -133.676          estimate D2E/DX2                !
 ! D134  D(15,16,17,21)        -34.2405         estimate D2E/DX2                !
 ! D135  D(31,16,17,18)         -5.7351         estimate D2E/DX2                !
 ! D136  D(31,16,17,21)         93.7004         estimate D2E/DX2                !
 ! D137  D(32,16,17,18)        106.6791         estimate D2E/DX2                !
 ! D138  D(32,16,17,21)       -153.8855         estimate D2E/DX2                !
 ! D139  D(16,17,18,19)         78.9946         estimate D2E/DX2                !
 ! D140  D(16,17,18,33)       -118.3033         estimate D2E/DX2                !
 ! D141  D(21,17,18,19)        -47.6128         estimate D2E/DX2                !
 ! D142  D(21,17,18,33)        115.0893         estimate D2E/DX2                !
 ! D143  D(16,17,21,20)        -22.5158         estimate D2E/DX2                !
 ! D144  D(16,17,21,36)        153.494          estimate D2E/DX2                !
 ! D145  D(18,17,21,20)         77.5837         estimate D2E/DX2                !
 ! D146  D(18,17,21,36)       -106.4065         estimate D2E/DX2                !
 ! D147  D(17,18,19,20)         30.0235         estimate D2E/DX2                !
 ! D148  D(17,18,19,34)       -174.2437         estimate D2E/DX2                !
 ! D149  D(33,18,19,20)       -135.214          estimate D2E/DX2                !
 ! D150  D(33,18,19,34)         20.5187         estimate D2E/DX2                !
 ! D151  D(18,19,20,21)          8.3841         estimate D2E/DX2                !
 ! D152  D(18,19,20,35)        135.2275         estimate D2E/DX2                !
 ! D153  D(34,19,20,21)       -149.4713         estimate D2E/DX2                !
 ! D154  D(34,19,20,35)        -22.6279         estimate D2E/DX2                !
 ! D155  D(19,20,21,1)        -108.8131         estimate D2E/DX2                !
 ! D156  D(19,20,21,17)        -46.7009         estimate D2E/DX2                !
 ! D157  D(19,20,21,36)        137.3691         estimate D2E/DX2                !
 ! D158  D(35,20,21,1)         130.345          estimate D2E/DX2                !
 ! D159  D(35,20,21,17)       -167.5429         estimate D2E/DX2                !
 ! D160  D(35,20,21,36)         16.5271         estimate D2E/DX2                !
 --------------------------------------------------------------------------------
 Trust Radius=3.00D-01 FncErr=1.00D-07 GrdErr=1.00D-07
 Number of steps in this run=    216 maximum allowed number of steps=    216.
 GradGradGradGradGradGradGradGradGradGradGradGradGradGradGradGradGradGrad

 Leave Link  103 at Mon Sep 15 12:51:26 2025, MaxMem=    33554432 cpu:         0.0
 (Enter /appl/g09.shchoi/G09Files/g09/l202.exe)
                          Input orientation:                          
 ---------------------------------------------------------------------
 Center     Atomic      Atomic             Coordinates (Angstroms)
 Number     Number       Type             X           Y           Z
 ---------------------------------------------------------------------
      1         40           0        0.000113   -0.000754   -0.000251
      2         17           0        0.000118    0.000000   -2.492838
      3         17           0        2.492976   -0.000273    0.000225
      4          7           0       -0.006129    0.001841    2.211419
      5          6           0       -0.858520    0.714566    2.967011
      6          6           0       -1.011482    2.131575    2.532290
      7          6           0       -0.785478    2.197858    1.023525
      8          6           0        0.304908    2.886399    0.561371
      9          6           0        0.102671    3.019194   -0.934446
     10          6           0       -1.204576    2.696922   -1.216939
     11          6           0       -1.862435    2.297468    0.027219
     12          6           0       -1.610224    0.145612    3.986561
     13          6           0       -1.552363   -1.227595    4.186327
     14          6           0       -0.799724   -1.987706    3.313135
     15          6           0       -0.048928   -1.344483    2.323494
     16          6           0        0.689112   -2.063594    1.286662
     17          6           0        0.125080   -1.914384   -0.373828
     18          6           0        0.197629   -3.326278   -0.675487
     19          6           0       -1.074515   -3.499738    0.041623
     20          6           0       -2.186207   -2.231362    0.063072
     21          6           0       -1.299572   -1.780919   -0.803343
     22          1           0       -0.242294    2.742699    3.016432
     23          1           0       -1.987270    2.523903    2.829424
     24          1           0        1.218669    3.128865    1.083063
     25          1           0        0.830410    3.435101   -1.609662
     26          1           0       -1.699634    2.782519   -2.169237
     27          1           0       -2.888214    1.977076    0.152315
     28          1           0       -2.248304    0.770592    4.590468
     29          1           0       -2.126337   -1.694656    4.971737
     30          1           0       -0.785697   -3.064507    3.378493
     31          1           0        0.786733   -3.123182    1.524699
     32          1           0        1.708206   -1.656086    1.202624
     33          1           0        0.709202   -3.983905   -1.340750
     34          1           0       -1.519182   -4.477174    0.231999
     35          1           0       -3.225143   -2.403535   -0.108743
     36          1           0       -1.573913   -1.278237   -1.745952
 ---------------------------------------------------------------------
                    Distance matrix (angstroms):
                    1          2          3          4          5
     1  Zr   0.000000
     2  Cl   2.492587   0.000000
     3  Cl   2.492863   3.525579   0.000000
     4  N    2.211680   4.704262   3.336901   0.000000
     5  C    3.170738   5.572954   4.532697   1.343677   0.000000
     6  C    3.461779   5.551473   4.820514   2.376859   1.490065
     7  C    2.549346   4.220492   4.077644   2.615524   2.445941
     8  C    2.957021   4.213358   3.665433   3.337675   3.443476
     9  C    3.162803   3.399211   3.962871   4.360358   4.632123
    10  C    3.195162   3.217545   4.735846   4.522541   4.642728
    11  C    2.958321   3.885634   4.924424   3.672398   3.486517
    12  C    4.302241   6.678100   5.722622   2.396856   1.388614
    13  C    4.630632   6.966235   5.949331   2.793316   2.395859
    14  C    3.945408   6.188703   5.076134   2.408707   2.724983
    15  C    2.684735   5.000709   3.696722   1.351659   2.304178
    16  C    2.527088   4.360935   3.027563   2.367395   3.596792
    17  C    1.953754   2.858441   3.067681   3.220658   4.363491
    18  C    3.399127   3.795511   4.097257   4.410456   5.541810
    19  C    3.660528   4.452695   4.997495   4.255646   5.134677
    20  C    3.124039   4.036294   5.184251   3.788843   4.344434
    21  C    2.345874   2.777636   4.266127   3.733633   4.542856
    22  H    4.084810   6.158995   4.909491   2.866378   2.120260
    23  H    4.281430   6.216612   5.869279   3.266136   2.136986
    24  H    3.528876   4.905276   3.547943   3.542823   3.700380
    25  H    3.883902   3.642706   4.142180   5.204588   5.585672
    26  H    3.916663   3.276627   5.479824   5.458047   5.600442
    27  H    3.503929   4.387269   5.735002   4.055598   3.692709
    28  H    5.169628   7.471441   6.644118   3.358303   2.137815
    29  H    5.666724   7.944404   6.994635   3.872046   3.380922
    30  H    4.628174   6.669425   5.617110   3.372281   3.802106
    31  H    3.562836   5.149139   3.871414   3.296359   4.417627
    32  H    2.665448   4.395068   2.191653   2.589466   3.914222
    33  H    4.262070   4.207328   4.566113   5.386629   6.564312
    34  H    4.732920   5.456931   6.016126   5.125330   5.905161
    35  H    4.023357   4.675810   6.203582   4.640155   4.978325
    36  H    2.675256   2.160857   4.606725   4.444922   5.166727
                    6          7          8          9         10
     6  C    0.000000
     7  C    1.527037   0.000000
     8  C    2.487401   1.369897   0.000000
     9  C    3.747995   2.301533   1.515257   0.000000
    10  C    3.796527   2.333321   2.340263   1.375702   0.000000
    11  C    2.650853   1.470505   2.308578   2.303764   1.462967
    12  C    2.533268   3.697499   4.786603   5.950445   5.809488
    13  C    3.783175   4.724951   5.789189   6.855412   6.687157
    14  C    4.197980   4.770897   5.705201   6.627617   6.529258
    15  C    3.612905   3.844555   4.596808   5.447828   5.495739
    16  C    4.695003   4.517038   5.017578   5.577810   5.702332
    17  C    5.109509   4.437595   4.894329   4.965379   4.872675
    18  C    6.445149   5.862527   6.335510   6.351464   6.207921
    19  C    6.157847   5.788806   6.554059   6.695891   6.324515
    20  C    5.149003   4.743680   5.713618   5.813978   5.185558
    21  C    5.149471   4.408220   5.120611   5.002455   4.497905
    22  H    1.095224   2.136253   2.519406   3.975536   4.341602
    23  H    1.092873   2.193600   3.244926   4.333576   4.124997
    24  H    2.840496   2.210639   1.079774   2.308207   3.368783
    25  H    4.716727   3.327993   2.300133   1.076336   2.200070
    26  H    4.796002   3.372127   3.388982   2.197505   1.076699
    27  H    3.034843   2.286755   3.345179   3.348500   2.286410
    28  H    2.760091   4.110965   5.218156   6.411550   6.206939
    29  H    4.672670   5.704204   6.807962   7.878569   7.644299
    30  H    5.269374   5.765272   6.673745   7.510130   7.381566
    31  H    5.644580   5.571040   6.105344   6.651625   6.734649
    32  H    4.848824   4.593846   4.797356   5.385448   5.769511
    33  H    7.440449   6.785135   7.140210   7.041048   6.950635
    34  H    7.016029   6.761722   7.593286   7.757998   7.325712
    35  H    5.695838   5.329804   6.394819   6.415771   5.596914
    36  H    5.499682   4.513853   5.118388   4.683737   4.027177
                   11         12         13         14         15
    11  C    0.000000
    12  C    4.513367   0.000000
    13  C    5.460805   1.388867   0.000000
    14  C    5.503573   2.379382   1.380833   0.000000
    15  C    4.671776   2.724669   2.396691   1.398864   0.000000
    16  C    5.207250   4.178157   3.759144   2.515747   1.461795
    17  C    4.674479   5.125218   4.907189   3.801886   2.762356
    18  C    6.030272   6.087450   5.577112   4.323840   3.603080
    19  C    5.850523   5.397972   4.750741   3.614491   3.302104
    20  C    4.540530   4.623368   4.290750   3.541837   3.234814
    21  C    4.199987   5.172157   5.026617   4.151867   3.395835
    22  H    3.429064   3.091479   4.341448   4.772368   4.150013
    23  H    2.814109   2.671591   4.012987   4.690294   4.356322
    24  H    3.361433   5.033163   6.023920   5.935186   4.812101
    25  H    3.350373   6.935066   7.811007   7.503206   6.251990
    26  H    2.255260   6.697397   7.516375   7.322656   6.319937
    27  H    1.081907   4.437224   5.322374   5.483801   4.879377
    28  H    4.827369   1.078170   2.154162   3.367220   3.801311
    29  H    6.360421   2.150240   1.079102   2.144001   3.383998
    30  H    6.414139   3.369637   2.148166   1.078874   2.148100
    31  H    6.216429   4.742487   4.018567   2.646631   2.121361
    32  H    5.455423   4.691311   4.440428   3.294532   2.107360
    33  H    6.923894   7.128316   6.577272   5.283968   4.579082
    34  H    6.786423   5.956104   5.118357   4.025974   4.043483
    35  H    4.896416   5.087006   4.756958   4.214833   4.138322
    36  H    4.001630   5.906807   5.932534   5.166921   4.346304
                   16         17         18         19         20
    16  C    0.000000
    17  C    1.760006   0.000000
    18  C    2.384524   1.445582   0.000000
    19  C    2.592877   2.031003   1.470607   0.000000
    20  C    3.129341   2.373479   2.725249   1.686741   0.000000
    21  C    2.898774   1.493964   2.155480   1.928460   1.318975
    22  H    5.192309   5.772110   7.117323   6.964919   6.102656
    23  H    5.530666   5.866962   7.161201   6.699941   5.504982
    24  H    5.223362   5.362166   6.767857   7.090957   6.431609
    25  H    6.216454   5.535501   6.854877   7.378853   6.633764
    26  H    6.413592   5.349203   6.568736   6.689202   5.509896
    27  H    5.514619   4.949771   6.191385   5.770377   4.267520
    28  H    5.251301   6.122604   7.106139   6.348660   5.432578
    29  H    4.652166   5.804500   6.320929   5.354500   4.938282
    30  H    2.748208   4.028922   4.179738   3.377505   3.694262
    31  H    1.090375   2.345929   2.286725   2.409472   3.430753
    32  H    1.100762   2.249046   2.932351   3.534192   4.098289
    33  H    3.254426   2.357765   1.066187   2.308034   3.664085
    34  H    3.437186   3.104596   2.257329   1.090575   2.348857
    35  H    4.169425   3.396106   3.589989   2.418568   1.067029
    36  H    3.864559   2.274639   2.911826   2.894804   2.134460
                   21         22         23         24         25
    21  C    0.000000
    22  H    6.014286   0.000000
    23  H    5.674629   1.768554   0.000000
    24  H    5.831470   2.453865   3.700514   0.000000
    25  H    5.691559   4.799048   5.336205   2.737753   0.000000
    26  H    4.780239   5.386705   5.013604   4.383367   2.672098
    27  H    4.190417   3.973693   2.877087   4.365707   4.365612
    28  H    6.041812   3.223487   2.498702   5.466557   7.417527
    29  H    5.834598   5.202207   4.733401   7.041108   8.852772
    30  H    4.404477   5.843802   5.742437   6.902488   8.350952
    31  H    3.402076   6.139440   6.425494   6.282492   7.268920
    32  H    3.617487   5.142340   5.811655   4.811413   5.882148
    33  H    3.029377   8.070786   8.186139   7.531661   7.424867
    34  H    2.896541   7.842836   7.482032   8.128466   8.456737
    35  H    2.139613   6.719214   5.868969   7.195507   7.265668
    36  H    1.102934   6.373495   5.963321   5.935014   5.292910
                   26         27         28         29         30
    26  H    0.000000
    27  H    2.729664   0.000000
    28  H    7.074072   4.643521   0.000000
    29  H    8.439235   6.106464   2.497537   0.000000
    30  H    8.111739   6.344002   4.279730   2.492435   0.000000
    31  H    7.396248   6.434385   5.811357   4.733786   2.431570
    32  H    6.533302   5.952318   5.746323   5.376934   3.596889
    33  H    7.230033   7.120670   8.156680   7.288925   5.035004
    34  H    7.648636   6.598329   6.860533   5.529571   3.526195
    35  H    5.785151   4.401298   5.754292   5.246061   4.306808
    36  H    4.084693   3.990973   6.693484   6.753216   5.483793
                   31         32         33         34         35
    31  H    0.000000
    32  H    1.762162   0.000000
    33  H    2.992934   3.589638   0.000000
    34  H    2.970120   4.395075   2.771741   0.000000
    35  H    4.391033   5.159098   4.415256   2.706730   0.000000
    36  H    4.435497   4.428225   3.563347   3.761447   2.583275
                   36
    36  H    0.000000
 Stoichiometry    C17H15Cl2NZr
 Framework group  C1[X(C17H15Cl2NZr)]
 Deg. of freedom   102
 Full point group                 C1      NOp   1
 Largest Abelian subgroup         C1      NOp   1
 Largest concise Abelian subgroup C1      NOp   1
                         Standard orientation:                         
 ---------------------------------------------------------------------
 Center     Atomic      Atomic             Coordinates (Angstroms)
 Number     Number       Type             X           Y           Z
 ---------------------------------------------------------------------
      1         40           0        0.491139   -0.270458    0.094449
      2         17           0        2.303011   -1.832876   -0.604808
      3         17           0        0.989196   -0.762868    2.486903
      4          7           0       -1.115635    1.119567    0.708973
      5          6           0       -1.366601    2.298960    0.116088
      6          6           0       -0.149921    3.124263   -0.126521
      7          6           0        1.035228    2.183425   -0.331682
      8          6           0        2.041486    2.196739    0.597772
      9          6           0        3.175375    1.398837   -0.013498
     10          6           0        2.907656    1.237448   -1.353213
     11          6           0        1.609535    1.846754   -1.642867
     12          6           0       -2.631653    2.658278   -0.329766
     13          6           0       -3.667803    1.737459   -0.243529
     14          6           0       -3.382452    0.468351    0.219762
     15          6           0       -2.090503    0.183925    0.674505
     16          6           0       -1.662203   -1.154015    1.078634
     17          6           0       -0.470145   -1.971247    0.074268
     18          6           0       -1.164400   -3.238540    0.033215
     19          6           0       -2.053715   -2.667946   -0.989637
     20          6           0       -1.457784   -1.478958   -2.027071
     21          6           0       -0.354948   -1.858231   -1.410955
     22          1           0        0.053600    3.736155    0.758738
     23          1           0       -0.302960    3.799184   -0.972353
     24          1           0        2.004305    2.525817    1.625505
     25          1           0        4.084819    1.144862    0.503134
     26          1           0        3.557039    0.802718   -2.093883
     27          1           0        1.103094    1.886689   -2.598087
     28          1           0       -2.787239    3.634056   -0.761157
     29          1           0       -4.660224    1.991575   -0.582627
     30          1           0       -4.134872   -0.304753    0.231693
     31          1           0       -2.512095   -1.822405    1.219549
     32          1           0       -1.129677   -1.101245    2.040564
     33          1           0       -1.010960   -4.252368    0.325387
     34          1           0       -2.923329   -3.197064   -1.380991
     35          1           0       -1.653671   -1.510924   -3.075479
     36          1           0        0.605624   -2.016290   -1.929398
 ---------------------------------------------------------------------
 Rotational constants (GHZ):      0.3277351      0.2958861      0.2135436
 Leave Link  202 at Mon Sep 15 12:51:26 2025, MaxMem=    33554432 cpu:         0.0
 (Enter /appl/g09.shchoi/G09Files/g09/l301.exe)
 Standard basis: SDD (6D, 10F)
 Ernie: Thresh=  0.10000D-02 Tol=  0.10000D-05 Strict=F.
 There are   285 symmetry adapted cartesian basis functions of A   symmetry.
 There are   285 symmetry adapted basis functions of A   symmetry.
   285 basis functions,   629 primitive gaussians,   285 cartesian basis functions
    85 alpha electrons       85 beta electrons
       nuclear repulsion energy      2107.0682410403 Hartrees.
 IExCor=    0 DFT=F Ex=HF Corr=None ExCW=0 ScaHFX=  1.000000
 ScaDFX=  1.000000  1.000000  1.000000  1.000000 ScalE2=  1.000000  1.000000
 IRadAn=      0 IRanWt=     -1 IRanGd=            0 ICorTp=0 IEmpDi=  4
 NAtoms=   36 NActive=   36 NUniq=   36 SFac= 1.00D+00 NAtFMM=   60 NAOKFM=F Big=F
 Integral buffers will be    131072 words long.
 Raffenetti 1 integral format.
 Two-electron integral symmetry is turned on.
 Leave Link  301 at Mon Sep 15 12:51:26 2025, MaxMem=    33554432 cpu:         0.0
 (Enter /appl/g09.shchoi/G09Files/g09/l402.exe)
 External calculation of energy and first derivatives.
 Running external command "/home/rxn_grp/programs/xtb-gaussian R"
         input file       "/home/rxn_grp/scratch/Gau-2487331.EIn"
         output file      "/home/rxn_grp/scratch/Gau-2487331.EOu"
         message file     "/home/rxn_grp/scratch/Gau-2487331.EMs"
         fchk file        "/home/rxn_grp/scratch/Gau-2487331.EFC"
         mat. el file     "/home/rxn_grp/scratch/Gau-2487331.EUF"

 ExternalExternalExternalExternalExternalExternalExternalExternalExternalExternal
 Output from external command:
 "/home/rxn_grp/programs/xtb-gaussian R /home/rxn_grp/scratch/Gau-2487331.EIn /home/rxn_grp/scratch/Gau-2487331.EOu /home/rxn_grp/scratch/Gau-2487331.EMs /home/rxn_grp/scratch/Gau-2487331.EFC /home/rxn_grp/scratch/Gau-2487331.EUF"
 normal termination of xtb
  
 ------- xtb command was ---------
 ?> xtb ./Gau-2487331.EIn  --grad --charge 0  >/dev/null 2>Gau-2487331.EMs
 ---------------------------------
              Control returned to Gaussian.
 ~~~~~~~~~~~~~~~~~~~~~~~~~~~~~~~~~~~~~~~~~~~~~~~~~~~~~~~~~~~~~~~~~~~~~~~~~
 ExternalExternalExternalExternalExternalExternalExternalExternalExternalExternal

 Recovered energy= -57.5082147733     dipole=     -4.507340385170      0.972737596761     -1.709276496760
 Energy=    -57.5082148     NIter=   0.
 Dipole moment=      -4.507340       0.972738      -1.709276
 Leave Link  402 at Mon Sep 15 12:51:26 2025, MaxMem=    33554432 cpu:         0.0
 (Enter /appl/g09.shchoi/G09Files/g09/l601.exe)
 Leave Link  601 at Mon Sep 15 12:51:26 2025, MaxMem=    33554432 cpu:         0.0
 (Enter /appl/g09.shchoi/G09Files/g09/l716.exe)
 Dipole        =-4.50734039D+00 9.72737597D-01-1.70927650D+00
 ***** Axes restored to original set *****
 -------------------------------------------------------------------
 Center     Atomic                   Forces (Hartrees/Bohr)
 Number     Number              X              Y              Z
 -------------------------------------------------------------------
      1       40           0.028321910    0.131158329   -0.012365641
      2       17           0.011852915    0.019640172    0.003593738
      3       17          -0.015405162    0.012284443   -0.002796528
      4        7          -0.020322470   -0.009414004    0.001397092
      5        6           0.000457500    0.000702132   -0.000373305
      6        6          -0.000393338    0.000203343   -0.000391988
      7        6          -0.051239317    0.017693765    0.010889048
      8        6           0.027907020   -0.008138356   -0.085697568
      9        6           0.015333782    0.001943963    0.056104053
     10        6          -0.021610467   -0.013058507    0.036309812
     11        6           0.041173503   -0.022372609   -0.020905504
     12        6           0.000862529   -0.000630348    0.000810735
     13        6           0.000017621    0.000938710   -0.000404348
     14        6           0.000995147   -0.000146171    0.000344535
     15        6          -0.000184214   -0.000642874    0.000651165
     16        6           0.003555787   -0.001158213   -0.003947647
     17        6           0.057668546   -0.030053353   -0.011917456
     18        6          -0.105243385   -0.033223095    0.036050519
     19        6           0.010542566   -0.045622029   -0.037243061
     20        6           0.037218981   -0.062994543    0.037620754
     21        6          -0.017136048    0.054622757   -0.017616522
     22        1          -0.000508494    0.000435684    0.000373367
     23        1          -0.000234451   -0.000598773   -0.000331796
     24        1           0.000562177   -0.000414884   -0.000106165
     25        1          -0.000075339    0.000416168    0.000058433
     26        1          -0.000093327    0.000298455   -0.000005343
     27        1          -0.000320694    0.000371975   -0.000004823
     28        1           0.000022948   -0.000070430    0.000194767
     29        1          -0.000021033    0.000049955    0.000115061
     30        1          -0.000132775    0.000095478   -0.000164581
     31        1          -0.002966059   -0.000511280    0.001168736
     32        1           0.000001926   -0.000758247    0.001273795
     33        1           0.009680530   -0.003022398    0.011419601
     34        1          -0.002777280   -0.001060432   -0.002808835
     35        1          -0.007434458   -0.004803836   -0.000117226
     36        1          -0.000077075   -0.002160945   -0.001176874
 -------------------------------------------------------------------
 Cartesian Forces:  Max     0.131158329 RMS     0.025638025
 Leave Link  716 at Mon Sep 15 12:51:26 2025, MaxMem=    33554432 cpu:         0.0
 (Enter /appl/g09.shchoi/G09Files/g09/l103.exe)

 GradGradGradGradGradGradGradGradGradGradGradGradGradGradGradGradGradGrad
 Berny optimization.
 FormGI is forming the generalized inverse of G from B-inverse, IUseBI=4.
 Internal  Forces:  Max     0.059219485 RMS     0.011544217
 Search for a local minimum.
 Step number   1 out of a maximum of  216
 All quantities printed in internal units (Hartrees-Bohrs-Radians)
 RMS Force = .11544D-01 SwitMx=.10000D-02 MixMth= 1
 Mixed Optimization -- RFO/linear search
 Second derivative matrix not updated -- first step.
 ITU=  0
     Eigenvalues ---    0.00408   0.00639   0.00742   0.00887   0.01230
     Eigenvalues ---    0.01294   0.01325   0.01359   0.01459   0.01489
     Eigenvalues ---    0.01704   0.01816   0.01856   0.01901   0.01949
     Eigenvalues ---    0.01965   0.02089   0.02211   0.02239   0.02265
     Eigenvalues ---    0.02281   0.02299   0.02725   0.02902   0.03481
     Eigenvalues ---    0.03571   0.03766   0.04052   0.04300   0.04711
     Eigenvalues ---    0.05237   0.05426   0.05903   0.06206   0.07006
     Eigenvalues ---    0.07631   0.07696   0.08557   0.08930   0.09201
     Eigenvalues ---    0.09433   0.09929   0.09935   0.09938   0.10796
     Eigenvalues ---    0.10999   0.11847   0.12367   0.12520   0.13220
     Eigenvalues ---    0.13288   0.13957   0.14405   0.14771   0.15055
     Eigenvalues ---    0.15422   0.15563   0.15767   0.15951   0.15971
     Eigenvalues ---    0.15993   0.16000   0.16966   0.17808   0.19166
     Eigenvalues ---    0.19741   0.21583   0.22200   0.22483   0.23401
     Eigenvalues ---    0.27676   0.29477   0.30455   0.32759   0.33011
     Eigenvalues ---    0.33360   0.33598   0.33650   0.34216   0.34483
     Eigenvalues ---    0.34746   0.34769   0.34998   0.35765   0.35865
     Eigenvalues ---    0.36022   0.36103   0.36131   0.36216   0.36396
     Eigenvalues ---    0.36441   0.37608   0.37716   0.40386   0.42289
     Eigenvalues ---    0.44897   0.46656   0.46981   0.48144   0.49902
     Eigenvalues ---    0.50263   0.57419
 RFO step:  Lambda=-1.31416649D-01 EMin= 4.08241325D-03
 Linear search not attempted -- first point.
 Maximum step size (   0.300) exceeded in Quadratic search.
    -- Step size scaled by   0.554
 Iteration  1 RMS(Cart)=  0.04007665 RMS(Int)=  0.00069428
 Iteration  2 RMS(Cart)=  0.00062136 RMS(Int)=  0.00033609
 Iteration  3 RMS(Cart)=  0.00000062 RMS(Int)=  0.00033609
 ITry= 1 IFail=0 DXMaxC= 3.09D-01 DCOld= 1.00D+10 DXMaxT= 3.00D-01 DXLimC= 3.00D+00 Rises=F
 Variable       Old X    -DE/DX   Delta X   Delta X   Delta X     New X
                                 (Linear)    (Quad)   (Total)
    R1        4.71031  -0.00359   0.00000  -0.00861  -0.00861   4.70169
    R2        4.71083  -0.01540   0.00000  -0.03698  -0.03698   4.67384
    R3        4.17947  -0.00063   0.00000  -0.00279  -0.00301   4.17646
    R4        4.81757  -0.03127   0.00000  -0.08568  -0.08576   4.73181
    R5        4.77550   0.02558   0.00000   0.05021   0.05052   4.82603
    R6        3.69206   0.05485   0.00000   0.11804   0.11864   3.81070
    R7        4.43306   0.04727   0.00000   0.08874   0.08821   4.52127
    R8        2.53918   0.00160   0.00000  -0.00039  -0.00041   2.53877
    R9        2.55426   0.00421   0.00000   0.00469   0.00473   2.55899
   R10        2.81582   0.00778   0.00000   0.00634   0.00650   2.82232
   R11        2.62410  -0.00057   0.00000  -0.00070  -0.00070   2.62340
   R12        2.88568   0.00043   0.00000   0.00088   0.00098   2.88666
   R13        2.06967   0.00005   0.00000   0.00006   0.00006   2.06973
   R14        2.06523  -0.00010   0.00000  -0.00011  -0.00011   2.06512
   R15        2.58873   0.03104   0.00000   0.02835   0.02856   2.61729
   R16        2.77885  -0.03051   0.00000  -0.03478  -0.03463   2.74423
   R17        2.86342  -0.05922   0.00000  -0.07375  -0.07386   2.78956
   R18        2.04048   0.00033   0.00000   0.00037   0.00037   2.04085
   R19        2.59970   0.00869   0.00000   0.00681   0.00659   2.60629
   R20        2.03398   0.00007   0.00000   0.00008   0.00008   2.03406
   R21        2.76461  -0.03657   0.00000  -0.04224  -0.04228   2.72233
   R22        2.03467   0.00007   0.00000   0.00008   0.00008   2.03475
   R23        2.04451   0.00019   0.00000   0.00022   0.00022   2.04473
   R24        2.62458  -0.00066   0.00000  -0.00033  -0.00030   2.62428
   R25        2.03745   0.00005   0.00000   0.00006   0.00006   2.03751
   R26        2.60940   0.00080   0.00000   0.00117   0.00120   2.61059
   R27        2.03921   0.00007   0.00000   0.00008   0.00008   2.03929
   R28        2.64347   0.00015   0.00000   0.00031   0.00031   2.64378
   R29        2.03878  -0.00011   0.00000  -0.00012  -0.00012   2.03866
   R30        2.76239   0.00437   0.00000   0.00802   0.00827   2.77066
   R31        3.32593  -0.01022   0.00000  -0.01099  -0.01109   3.31484
   R32        2.06051   0.00049   0.00000   0.00056   0.00056   2.06107
   R33        2.08014  -0.00038   0.00000  -0.00045  -0.00045   2.07969
   R34        2.73175   0.05268   0.00000   0.06904   0.07004   2.80179
   R35        2.82318  -0.00481   0.00000   0.00704   0.00695   2.83013
   R36        2.77904  -0.04051   0.00000  -0.06259  -0.06357   2.71547
   R37        2.01480  -0.00062   0.00000  -0.00067  -0.00067   2.01413
   R38        3.18748  -0.00408   0.00000  -0.03132  -0.03240   3.15508
   R39        2.06089   0.00159   0.00000   0.00184   0.00184   2.06273
   R40        2.49250   0.04335   0.00000   0.04133   0.04217   2.53467
   R41        2.01639   0.00803   0.00000   0.00877   0.00877   2.02516
   R42        2.08424   0.00004   0.00000   0.00005   0.00005   2.08429
    A1        1.57099  -0.00466   0.00000  -0.01380  -0.01436   1.55663
    A2        1.98376  -0.01455   0.00000  -0.02484  -0.02499   1.95877
    A3        2.10539   0.01258   0.00000   0.02096   0.02105   2.12644
    A4        1.37870   0.02202   0.00000   0.03798   0.03797   1.41667
    A5        1.22163   0.01962   0.00000   0.04533   0.04570   1.26733
    A6        1.57343   0.00598   0.00000   0.01171   0.01179   1.58522
    A7        1.88379  -0.00629   0.00000  -0.01346  -0.01353   1.87027
    A8        1.29472   0.01356   0.00000   0.02659   0.02654   1.32125
    A9        1.50702   0.01179   0.00000   0.02259   0.02255   1.52957
   A10        2.15825   0.00084   0.00000   0.00881   0.00932   2.16757
   A11        1.15550   0.00129   0.00000   0.00430   0.00435   1.15984
   A12        1.03849   0.00073   0.00000  -0.00024  -0.00023   1.03826
   A13        1.76454  -0.00837   0.00000  -0.01564  -0.01551   1.74904
   A14        1.91949  -0.00939   0.00000  -0.02587  -0.02599   1.89350
   A15        2.19383   0.00198   0.00000   0.00401   0.00406   2.19788
   A16        2.79698  -0.00726   0.00000  -0.01114  -0.01089   2.78609
   A17        2.24107   0.00541   0.00000   0.00453   0.00403   2.24510
   A18        1.27233  -0.01461   0.00000  -0.02844  -0.02822   1.24412
   A19        2.17092  -0.00150   0.00000  -0.00450  -0.00463   2.16628
   A20        1.65272   0.00160   0.00000   0.00630   0.00631   1.65903
   A21        2.05062   0.00134   0.00000   0.00446   0.00458   2.05520
   A22        1.98831  -0.00272   0.00000  -0.00636  -0.00631   1.98199
   A23        2.13999  -0.00010   0.00000  -0.00042  -0.00050   2.13948
   A24        2.15110   0.00285   0.00000   0.00675   0.00679   2.15789
   A25        1.89056  -0.00716   0.00000  -0.01260  -0.01253   1.87803
   A26        1.90665   0.00349   0.00000   0.00677   0.00680   1.91344
   A27        1.93234   0.00089   0.00000   0.00021   0.00014   1.93249
   A28        1.88451   0.00213   0.00000   0.00369   0.00363   1.88815
   A29        1.96621   0.00192   0.00000   0.00295   0.00295   1.96917
   A30        1.88239  -0.00103   0.00000  -0.00053  -0.00054   1.88185
   A31        1.98772   0.01039   0.00000   0.02187   0.02184   2.00957
   A32        1.62353  -0.01560   0.00000  -0.03809  -0.03802   1.58551
   A33        1.58282  -0.01101   0.00000  -0.03182  -0.03180   1.55102
   A34        2.06343   0.00864   0.00000   0.01972   0.01974   2.08317
   A35        2.16998   0.00030   0.00000   0.00278   0.00284   2.17282
   A36        1.89686  -0.00148   0.00000   0.00125   0.00018   1.89704
   A37        1.84507  -0.00110   0.00000   0.00336   0.00363   1.84870
   A38        2.24395   0.00193   0.00000   0.00063   0.00044   2.24439
   A39        2.17757  -0.00029   0.00000  -0.00225  -0.00238   2.17519
   A40        1.88494  -0.00045   0.00000   0.00003  -0.00011   1.88483
   A41        2.16869  -0.00025   0.00000  -0.00006   0.00000   2.16870
   A42        2.21954   0.00119   0.00000   0.00162   0.00164   2.22117
   A43        1.89297   0.00761   0.00000   0.00980   0.00974   1.90271
   A44        2.21418  -0.00368   0.00000  -0.00448  -0.00445   2.20973
   A45        2.17381  -0.00372   0.00000  -0.00482  -0.00481   2.16900
   A46        1.83937  -0.00019   0.00000  -0.00094  -0.00064   1.83873
   A47        2.20928   0.00068   0.00000   0.00197   0.00184   2.21112
   A48        2.22124  -0.00019   0.00000   0.00009  -0.00010   2.22114
   A49        2.08078  -0.00048   0.00000  -0.00166  -0.00166   2.07912
   A50        2.08762   0.00039   0.00000   0.00113   0.00113   2.08875
   A51        2.11440   0.00010   0.00000   0.00056   0.00056   2.11496
   A52        2.06692   0.00114   0.00000   0.00203   0.00206   2.06898
   A53        2.10653  -0.00066   0.00000  -0.00117  -0.00118   2.10535
   A54        2.10821  -0.00048   0.00000  -0.00084  -0.00086   2.10736
   A55        2.07922   0.00127   0.00000   0.00198   0.00198   2.08120
   A56        2.11553  -0.00059   0.00000  -0.00091  -0.00091   2.11462
   A57        2.08842  -0.00068   0.00000  -0.00107  -0.00107   2.08735
   A58        2.13372  -0.00319   0.00000  -0.00623  -0.00630   2.12741
   A59        1.99896   0.00734   0.00000   0.01188   0.01197   2.01092
   A60        2.14906  -0.00417   0.00000  -0.00568  -0.00569   2.14337
   A61        1.39183  -0.00705   0.00000  -0.01249  -0.01262   1.37921
   A62        2.76203   0.00335   0.00000   0.00865   0.00865   2.77068
   A63        1.48202   0.00158   0.00000   0.00188   0.00193   1.48395
   A64        2.05519   0.00050   0.00000   0.00500   0.00505   2.06025
   A65        1.94809   0.00552   0.00000   0.00710   0.00721   1.95530
   A66        1.91714  -0.00183   0.00000  -0.00087  -0.00084   1.91630
   A67        1.89340  -0.00823   0.00000  -0.01654  -0.01663   1.87677
   A68        1.76530   0.00698   0.00000   0.01043   0.01029   1.77559
   A69        1.86872  -0.00335   0.00000  -0.00597  -0.00601   1.86271
   A70        1.66895   0.00572   0.00000   0.01373   0.01432   1.68327
   A71        2.19496   0.00134   0.00000  -0.01459  -0.01534   2.17962
   A72        1.64599  -0.01957   0.00000  -0.03093  -0.03093   1.61505
   A73        1.54082   0.03578   0.00000   0.07766   0.07781   1.61864
   A74        2.42907  -0.02121   0.00000  -0.04117  -0.04103   2.38804
   A75        2.27388  -0.01341   0.00000  -0.03415  -0.03439   2.23949
   A76        2.08018  -0.01088   0.00000  -0.03073  -0.03248   2.04769
   A77        2.14546   0.00582   0.00000   0.01980   0.02069   2.16614
   A78        1.98560   0.00808   0.00000   0.02008   0.02067   2.00627
   A79        1.37496   0.02227   0.00000   0.05513   0.05509   1.43005
   A80        2.11571  -0.02216   0.00000  -0.04637  -0.04598   2.06972
   A81        2.21912  -0.00605   0.00000  -0.01692  -0.01659   2.20253
   A82        1.98964   0.01640   0.00000   0.03743   0.03803   2.02767
   A83        1.65542  -0.00729   0.00000  -0.01550  -0.01605   1.63937
   A84        2.00608  -0.01242   0.00000  -0.01978  -0.01959   1.98649
   A85        2.12189   0.00565   0.00000   0.00631   0.00561   2.12751
   A86        2.15297   0.00802   0.00000   0.01666   0.01603   2.16900
   A87        3.14441   0.00132   0.00000  -0.00209  -0.00257   3.14185
   A88        3.15344  -0.00944   0.00000  -0.02320  -0.02319   3.13026
   A89        3.14012  -0.01363   0.00000  -0.02260  -0.02265   3.11746
   A90        3.12134  -0.01699   0.00000  -0.03502  -0.03500   3.08634
    D1        2.44438  -0.01151   0.00000  -0.02706  -0.02704   2.41734
    D2       -1.60253  -0.00914   0.00000  -0.01795  -0.01784  -1.62038
    D3        0.53160  -0.00159   0.00000  -0.00607  -0.00609   0.52551
    D4        2.76787   0.00079   0.00000   0.00304   0.00310   2.77097
    D5       -2.59153   0.00088   0.00000  -0.00307  -0.00317  -2.59470
    D6       -0.35526   0.00326   0.00000   0.00604   0.00603  -0.34923
    D7       -2.33249   0.00176   0.00000  -0.00158  -0.00185  -2.33434
    D8       -0.09622   0.00413   0.00000   0.00753   0.00734  -0.08888
    D9       -1.63610  -0.01042   0.00000  -0.01907  -0.01864  -1.65473
   D10        0.60018  -0.00804   0.00000  -0.00996  -0.00945   0.59073
   D11        2.97250   0.00581   0.00000   0.01586   0.01577   2.98827
   D12       -1.16784   0.01060   0.00000   0.02474   0.02431  -1.14354
   D13        0.73019   0.00798   0.00000   0.02292   0.02312   0.75330
   D14       -1.59739  -0.00834   0.00000  -0.01641  -0.01634  -1.61373
   D15        0.54545  -0.00355   0.00000  -0.00753  -0.00781   0.53765
   D16        2.44348  -0.00616   0.00000  -0.00935  -0.00900   2.43449
   D17       -0.16674   0.00218   0.00000   0.00546   0.00544  -0.16129
   D18        1.97611   0.00697   0.00000   0.01434   0.01398   1.99009
   D19       -2.40905   0.00436   0.00000   0.01252   0.01279  -2.39626
   D20       -0.14715   0.00484   0.00000   0.00869   0.00861  -0.13853
   D21        1.99570   0.00963   0.00000   0.01757   0.01715   2.01285
   D22       -2.38946   0.00701   0.00000   0.01575   0.01596  -2.37350
   D23        0.75352  -0.00684   0.00000  -0.01060  -0.01027   0.74325
   D24        2.89636  -0.00205   0.00000  -0.00172  -0.00173   2.89463
   D25       -1.48879  -0.00467   0.00000  -0.00354  -0.00292  -1.49171
   D26        1.53136  -0.01112   0.00000  -0.02709  -0.02717   1.50420
   D27       -2.60897  -0.00633   0.00000  -0.01821  -0.01863  -2.62761
   D28       -0.71095  -0.00895   0.00000  -0.02003  -0.01982  -0.73077
   D29       -2.80723  -0.00614   0.00000  -0.01593  -0.01603  -2.82325
   D30       -0.64573  -0.00473   0.00000  -0.01764  -0.01788  -0.66361
   D31        1.53428  -0.00506   0.00000  -0.01667  -0.01682   1.51746
   D32        2.07348  -0.00434   0.00000  -0.00814  -0.00798   2.06550
   D33       -2.04821  -0.00293   0.00000  -0.00985  -0.00983  -2.05804
   D34        0.13180  -0.00327   0.00000  -0.00889  -0.00878   0.12303
   D35        0.33180  -0.00261   0.00000  -0.00537  -0.00536   0.32644
   D36        2.49330  -0.00119   0.00000  -0.00708  -0.00721   2.48608
   D37       -1.60987  -0.00153   0.00000  -0.00611  -0.00616  -1.61603
   D38        0.31100  -0.00543   0.00000  -0.00885  -0.00878   0.30222
   D39        2.47250  -0.00402   0.00000  -0.01056  -0.01063   2.46187
   D40       -1.63068  -0.00435   0.00000  -0.00959  -0.00957  -1.64025
   D41       -1.87761  -0.00271   0.00000   0.00385   0.00426  -1.87335
   D42        0.28389  -0.00130   0.00000   0.00214   0.00241   0.28629
   D43        2.46390  -0.00164   0.00000   0.00311   0.00346   2.46736
   D44       -2.08447  -0.00392   0.00000  -0.00758  -0.00649  -2.09095
   D45        0.74095  -0.00465   0.00000  -0.00994  -0.00887   0.73208
   D46        2.61600   0.00620   0.00000   0.01699   0.01678   2.63278
   D47       -0.84177   0.00548   0.00000   0.01463   0.01440  -0.82737
   D48        1.05434  -0.00447   0.00000  -0.00415  -0.00355   1.05079
   D49       -2.40343  -0.00520   0.00000  -0.00651  -0.00593  -2.40936
   D50        0.19293  -0.00486   0.00000  -0.00606  -0.00550   0.18743
   D51        3.01835  -0.00559   0.00000  -0.00842  -0.00788   3.01047
   D52       -2.75824  -0.00631   0.00000  -0.02844  -0.02879  -2.78703
   D53       -0.49061   0.00646   0.00000  -0.00052  -0.00113  -0.49174
   D54        2.19877  -0.01496   0.00000  -0.04072  -0.04062   2.15815
   D55       -1.81678  -0.00219   0.00000  -0.01279  -0.01296  -1.82974
   D56        0.38000  -0.01598   0.00000  -0.04079  -0.04076   0.33924
   D57        2.64764  -0.00321   0.00000  -0.01287  -0.01310   2.63454
   D58       -0.92815  -0.01174   0.00000  -0.02836  -0.02796  -0.95611
   D59        1.33948   0.00103   0.00000  -0.00044  -0.00030   1.33918
   D60        1.20734  -0.01931   0.00000  -0.04372  -0.04307   1.16426
   D61       -2.80822  -0.00654   0.00000  -0.01580  -0.01542  -2.82363
   D62       -0.81148   0.00206   0.00000   0.00906   0.00910  -0.80238
   D63        2.23936   0.00255   0.00000   0.00912   0.00915   2.24851
   D64       -2.86918  -0.00039   0.00000  -0.00104  -0.00102  -2.87020
   D65        0.18165   0.00010   0.00000  -0.00098  -0.00097   0.18069
   D66       -2.47947  -0.00039   0.00000  -0.00175  -0.00178  -2.48125
   D67        0.60593  -0.00084   0.00000  -0.00234  -0.00238   0.60355
   D68       -0.15886  -0.00024   0.00000   0.00012   0.00008  -0.15879
   D69        2.92655  -0.00070   0.00000  -0.00046  -0.00053   2.92602
   D70        0.51799   0.00069   0.00000  -0.00010  -0.00021   0.51779
   D71       -1.53068   0.00025   0.00000  -0.00114  -0.00118  -1.53187
   D72        2.68200  -0.00119   0.00000  -0.00482  -0.00486   2.67714
   D73       -2.53219   0.00037   0.00000   0.00027   0.00019  -2.53200
   D74        1.70232  -0.00007   0.00000  -0.00077  -0.00079   1.70153
   D75       -0.36818  -0.00151   0.00000  -0.00446  -0.00447  -0.37264
   D76       -0.07493   0.00029   0.00000   0.00162   0.00165  -0.07328
   D77        3.09636  -0.00005   0.00000   0.00051   0.00052   3.09688
   D78        2.96744   0.00052   0.00000   0.00097   0.00098   2.96842
   D79       -0.14446   0.00018   0.00000  -0.00015  -0.00016  -0.14462
   D80       -0.11850  -0.00266   0.00000  -0.00557  -0.00553  -0.12403
   D81       -1.99731   0.00482   0.00000   0.01605   0.01596  -1.98134
   D82        1.77632  -0.00881   0.00000  -0.02908  -0.02912   1.74720
   D83        1.94432  -0.00126   0.00000  -0.00238  -0.00233   1.94198
   D84        0.06551   0.00622   0.00000   0.01923   0.01916   0.08467
   D85       -2.44405  -0.00740   0.00000  -0.02589  -0.02592  -2.46997
   D86       -2.26208   0.00002   0.00000   0.00115   0.00119  -2.26089
   D87        2.14229   0.00751   0.00000   0.02277   0.02269   2.16498
   D88       -0.36726  -0.00612   0.00000  -0.02235  -0.02239  -0.38966
   D89        1.25998  -0.00653   0.00000  -0.01313  -0.01291   1.24707
   D90       -1.69154  -0.00951   0.00000  -0.02278  -0.02256  -1.71410
   D91       -2.94196  -0.00110   0.00000  -0.00452  -0.00467  -2.94662
   D92        0.38972  -0.00407   0.00000  -0.01418  -0.01432   0.37539
   D93       -0.34138   0.01050   0.00000   0.03339   0.03355  -0.30783
   D94        2.99029   0.00753   0.00000   0.02374   0.02390   3.01419
   D95       -1.31085   0.00740   0.00000   0.01541   0.01549  -1.29535
   D96        1.66564   0.00919   0.00000   0.02226   0.02234   1.68799
   D97        2.87954   0.00276   0.00000   0.01164   0.01164   2.89118
   D98       -0.42716   0.00455   0.00000   0.01849   0.01849  -0.40867
   D99        0.31970  -0.01286   0.00000  -0.03558  -0.03541   0.28429
   D100      -2.98700  -0.01107   0.00000  -0.02873  -0.02856  -3.01556
   D101       0.24343  -0.00870   0.00000  -0.02507  -0.02489   0.21855
   D102      -3.04048  -0.00513   0.00000  -0.01369  -0.01353  -3.05401
   D103      -3.07896  -0.00556   0.00000  -0.01552  -0.01537  -3.09433
   D104      -0.07969  -0.00198   0.00000  -0.00414  -0.00401  -0.08370
   D105      -0.04341  -0.00106   0.00000   0.00146   0.00162  -0.04179
   D106       3.02874   0.00207   0.00000   0.00927   0.00939   3.03813
   D107      -3.03734  -0.00462   0.00000  -0.01016  -0.01000  -3.04734
   D108       0.03481  -0.00148   0.00000  -0.00235  -0.00223   0.03258
   D109      -0.15761   0.00443   0.00000   0.01567   0.01576  -0.14185
   D110      -3.13260   0.00251   0.00000   0.00853   0.00862  -3.12398
   D111       3.05143   0.00140   0.00000   0.00809   0.00822   3.05965
   D112       0.07645  -0.00052   0.00000   0.00094   0.00107   0.07752
   D113      -0.05918  -0.00017   0.00000  -0.00039  -0.00042  -0.05960
   D114       3.14124  -0.00019   0.00000  -0.00073  -0.00075   3.14050
   D115       3.05225   0.00019   0.00000   0.00074   0.00074   3.05299
   D116      -0.03051   0.00016   0.00000   0.00041   0.00041  -0.03010
   D117       0.07975  -0.00014   0.00000  -0.00074  -0.00075   0.07899
   D118      -3.05623   0.00021   0.00000   0.00025   0.00027  -3.05596
   D119      -3.12073  -0.00013   0.00000  -0.00042  -0.00044  -3.12117
   D120       0.02647   0.00023   0.00000   0.00057   0.00058   0.02706
   D121       0.03017   0.00034   0.00000   0.00072   0.00076   0.03093
   D122      -3.05038   0.00046   0.00000   0.00079   0.00084  -3.04954
   D123      -3.11695  -0.00001   0.00000  -0.00026  -0.00025  -3.11720
   D124       0.08569   0.00011   0.00000  -0.00018  -0.00016   0.08553
   D125      -0.52919   0.00326   0.00000   0.00749   0.00746  -0.52174
   D126      -1.12673  -0.00538   0.00000  -0.01130  -0.01131  -1.13804
   D127       2.94978   0.00075   0.00000   0.00128   0.00126   2.95104
   D128       0.87983   0.00265   0.00000   0.00482   0.00477   0.88460
   D129       2.55566   0.00285   0.00000   0.00689   0.00684   2.56249
   D130       1.95812  -0.00579   0.00000  -0.01190  -0.01194   1.94618
   D131      -0.24855   0.00034   0.00000   0.00068   0.00064  -0.24792
   D132      -2.31851   0.00223   0.00000   0.00422   0.00415  -2.31436
   D133      -2.33309   0.02055   0.00000   0.04509   0.04494  -2.28814
   D134      -0.59761   0.00061   0.00000   0.01343   0.01368  -0.58393
   D135      -0.10010   0.02108   0.00000   0.04389   0.04383  -0.05627
   D136       1.63538   0.00114   0.00000   0.01222   0.01256   1.64794
   D137       1.86190   0.01756   0.00000   0.03607   0.03579   1.89769
   D138      -2.68581  -0.00238   0.00000   0.00440   0.00452  -2.68128
   D139       1.37872  -0.00074   0.00000   0.00154   0.00079   1.37951
   D140      -2.06478   0.00577   0.00000   0.01344   0.01232  -2.05246
   D141      -0.83100   0.00045   0.00000   0.01963   0.01962  -0.81138
   D142       2.00869   0.00695   0.00000   0.03153   0.03116   2.03984
   D143      -0.39297  -0.03133   0.00000  -0.07627  -0.07593  -0.46890
   D144       2.67898  -0.01164   0.00000  -0.02623  -0.02643   2.65255
   D145       1.35409  -0.03850   0.00000  -0.08514  -0.08357   1.27052
   D146      -1.85714  -0.01880   0.00000  -0.03511  -0.03407  -1.89122
   D147       0.52401  -0.01605   0.00000  -0.04670  -0.04615   0.47785
   D148      -3.04113  -0.00585   0.00000  -0.01681  -0.01647  -3.05759
   D149      -2.35993  -0.01808   0.00000  -0.05184  -0.05147  -2.41140
[...]
 ! D144  D(16,17,21,36)         -7.7531         -DE/DX =    0.0                 !
 ! D145  D(18,17,21,20)          1.1903         -DE/DX =    0.0                 !
 ! D146  D(18,17,21,36)        172.3413         -DE/DX =    0.0                 !
 ! D147  D(17,18,19,20)          1.9688         -DE/DX =    0.0                 !
 ! D148  D(17,18,19,34)       -174.0506         -DE/DX =    0.0                 !
 ! D149  D(33,18,19,20)        175.7269         -DE/DX =    0.0                 !
 ! D150  D(33,18,19,34)         -0.2925         -DE/DX =    0.0                 !
 ! D151  D(18,19,20,21)         -1.2352         -DE/DX =    0.0                 !
 ! D152  D(18,19,20,35)       -172.645          -DE/DX =    0.0                 !
 ! D153  D(34,19,20,21)        174.769          -DE/DX =    0.0                 !
 ! D154  D(34,19,20,35)          3.3592         -DE/DX =    0.0                 !
 ! D155  D(19,20,21,1)          65.4444         -DE/DX =    0.0                 !
 ! D156  D(19,20,21,17)          0.0244         -DE/DX =    0.0                 !
 ! D157  D(19,20,21,36)       -171.0492         -DE/DX =    0.0                 !
 ! D158  D(35,20,21,1)        -123.1832         -DE/DX =    0.0                 !
 ! D159  D(35,20,21,17)        171.3968         -DE/DX =    0.0                 !
 ! D160  D(35,20,21,36)          0.3232         -DE/DX =    0.0                 !
 --------------------------------------------------------------------------------
 GradGradGradGradGradGradGradGradGradGradGradGradGradGradGradGradGradGrad

 Largest change from initial coordinates is atom   34       1.321 Angstoms.
 Leave Link  103 at Mon Sep 15 12:51:53 2025, MaxMem=    33554432 cpu:         0.0
 (Enter /appl/g09.shchoi/G09Files/g09/l202.exe)
                          Input orientation:                          
 ---------------------------------------------------------------------
 Center     Atomic      Atomic             Coordinates (Angstroms)
 Number     Number       Type             X           Y           Z
 ---------------------------------------------------------------------
      1         40           0       -0.046131   -0.043263   -0.268610
      2         17           0        1.490321    0.251424   -2.065057
      3         17           0        1.924525   -0.032022    1.046428
      4          7           0       -0.632101   -0.334611    2.168155
      5          6           0       -0.677856    0.739899    2.960562
      6          6           0       -0.731843    2.091433    2.295203
      7          6           0       -0.943439    1.977549    0.813660
      8          6           0       -0.077032    2.442105   -0.204753
      9          6           0       -0.687185    2.165410   -1.448572
     10          6           0       -1.898231    1.494683   -1.207936
     11          6           0       -2.064076    1.374930    0.190680
     12          6           0       -0.647536    0.641001    4.346890
     13          6           0       -0.549568   -0.609913    4.929534
     14          6           0       -0.470320   -1.718929    4.106302
     15          6           0       -0.506546   -1.541045    2.728048
     16          6           0       -0.369902   -2.724283    1.804211
     17          6           0       -0.622742   -2.348368    0.373303
     18          6           0        0.283182   -2.467691   -0.707753
     19          6           0       -0.383138   -2.038457   -1.877297
     20          6           0       -1.674087   -1.613660   -1.520474
     21          6           0       -1.830066   -1.802781   -0.128465
     22          1           0        0.217325    2.602342    2.493417
     23          1           0       -1.529422    2.684716    2.757622
     24          1           0        0.836855    3.008075   -0.056078
     25          1           0       -0.317435    2.479722   -2.415081
     26          1           0       -2.640633    1.252177   -1.956378
     27          1           0       -2.955497    1.030274    0.700353
     28          1           0       -0.691384    1.533873    4.950693
     29          1           0       -0.523778   -0.717452    6.003368
     30          1           0       -0.372592   -2.711258    4.517946
     31          1           0       -1.061328   -3.511097    2.127938
     32          1           0        0.648464   -3.116132    1.907586
     33          1           0        1.272062   -2.912634   -0.665603
     34          1           0        0.010721   -2.094769   -2.882958
     35          1           0       -2.457357   -1.336506   -2.213133
     36          1           0       -2.752543   -1.700920    0.429960
 ---------------------------------------------------------------------
                    Distance matrix (angstroms):
                    1          2          3          4          5
     1  Zr   0.000000
     2  Cl   2.382172   0.000000
     3  Cl   2.369164   3.154396   0.000000
     4  N    2.523107   4.771603   2.808232   0.000000
     5  C    3.382303   5.495129   3.321470   1.335880   0.000000
     6  C    3.405916   5.228337   3.622815   2.431415   1.507402
     7  C    2.461738   4.146047   3.509669   2.697716   2.492289
     8  C    2.486381   3.273592   3.419502   3.694448   3.643860
     9  C    2.584860   2.963938   4.227856   4.397028   4.633857
    10  C    2.584161   3.709802   4.693235   4.043190   4.408559
    11  C    2.508849   4.357103   4.315177   2.980518   3.161822
    12  C    4.704546   6.770175   4.238102   2.387247   1.390182
    13  C    5.253118   7.336713   4.640432   2.776296   2.390669
    14  C    4.704003   6.768462   4.236008   2.387242   2.720592
    15  C    3.381611   5.493112   3.318901   1.335937   2.299155
    16  C    3.404303   5.223648   3.617582   2.431406   3.665043
    17  C    2.461308   4.143615   3.508151   2.697554   4.029186
    18  C    2.485789   3.270022   3.421059   3.695757   4.966766
    19  C    2.585004   2.964567   4.230752   4.396675   5.586681
    20  C    2.585256   3.713298   4.694738   4.040752   5.158623
    21  C    2.509575   4.358338   4.314269   2.977432   4.163520
    22  H    3.833722   5.284602   3.456614   3.074575   2.118553
    23  H    4.335909   6.188537   4.715782   3.204527   2.132759
    24  H    3.183630   3.473059   3.411852   4.275347   4.066828
    25  H    3.323612   2.890642   4.828798   5.387535   5.661663
    26  H    3.355320   4.251835   5.613082   4.854263   5.318950
    27  H    3.248966   5.293335   5.006282   3.068472   3.221880
    28  H    5.490431   7.458234   4.953614   3.352203   2.142708
    29  H    6.326167   8.372264   5.570930   3.855796   3.377318
    30  H    5.489616   7.455458   4.950403   3.352210   3.798567
    31  H    4.335890   6.184552   4.710514   3.205607   4.348710
    32  H    3.828944   5.275514   3.446978   3.073207   4.211515
    33  H    3.182535   3.466608   3.413896   4.278110   5.503840
    34  H    3.323661   2.891851   4.832975   5.387496   6.531172
    35  H    3.356733   4.257653   5.614918   4.850880   5.851941
    36  H    3.249691   5.295153   5.004021   3.063396   4.082386
                    6          7          8          9         10
     6  C    0.000000
     7  C    1.500904   0.000000
     8  C    2.607974   1.415500   0.000000
     9  C    3.744772   2.284437   1.412775   0.000000
    10  C    3.740127   2.287277   2.284897   1.405139   0.000000
    11  C    2.591763   1.416714   2.289885   2.282068   1.413496
    12  C    2.514017   3.789147   4.928175   5.992727   5.757526
    13  C    3.777591   4.877552   5.991579   6.957126   6.626971
    14  C    4.226976   4.972855   6.004505   6.781721   6.372390
    15  C    3.665107   4.029425   4.965007   5.587002   5.161821
    16  C    4.854193   4.839149   5.550971   5.881358   5.404488
    17  C    4.839156   4.360082   4.855984   4.868015   4.346979
    18  C    5.552804   4.855869   4.948623   4.791248   4.550731
    19  C    5.881100   4.866569   4.792342   4.236597   3.902132
    20  C    5.401381   4.344975   4.553124   3.906471   3.132046
    21  C    4.716477   3.995573   4.593257   4.335366   3.470327
    22  H    1.096009   2.135257   2.718905   4.067963   4.404826
    23  H    1.096334   2.149988   3.308166   4.321008   4.156663
    24  H    2.971459   2.233355   1.085180   2.229758   3.331340
    25  H    4.744394   3.326985   2.223681   1.081502   2.219554
    26  H    4.735375   3.328625   3.325082   2.215361   1.081728
    27  H    2.935003   2.226779   3.331373   3.324403   2.230482
    28  H    2.713694   4.168383   5.270762   6.430353   6.275884
    29  H    4.656567   5.862783   6.980197   7.991809   7.667174
    30  H    5.304289   6.002709   6.996313   7.712340   7.266583
    31  H    5.614702   5.645039   6.469228   6.719683   6.073409
    32  H    5.401317   5.447607   5.990186   6.398628   6.119783
    33  H    6.150016   5.568713   5.541270   5.498930   5.456128
    34  H    6.699928   5.582041   5.269128   4.549029   4.397040
    35  H    5.920579   4.736706   4.896677   3.997685   3.055925
    36  H    4.684475   4.117186   4.972513   4.768972   3.691129
                   11         12         13         14         15
    11  C    0.000000
    12  C    4.451890   0.000000
    13  C    5.356312   1.383422   0.000000
    14  C    5.238713   2.378772   1.383441   0.000000
    15  C    4.167379   2.720635   2.390690   1.390158   0.000000
    16  C    4.719879   4.226989   3.777629   2.514049   1.507381
    17  C    3.996716   4.972559   4.877174   3.788761   2.492007
    18  C    4.591573   6.006632   5.993649   4.929862   3.645144
    19  C    4.330507   6.781586   6.957110   5.992758   4.633773
    20  C    3.465805   6.368929   6.623794   5.755062   4.406627
    21  C    3.202259   5.234430   5.352193   4.448504   3.159094
    22  H    3.466111   2.833762   4.103824   4.663436   4.212683
    23  H    2.930970   2.735008   4.065943   4.725750   4.347896
    24  H    3.338181   5.214651   6.314138   6.432626   5.500052
    25  H    3.325854   7.015278   7.971393   7.757608   6.531011
    26  H    2.226510   6.639064   7.433419   7.091814   5.856643
    27  H    1.083138   4.333065   5.134655   5.033360   4.089081
    28  H    4.956537   1.078759   2.148576   3.367876   3.798610
    29  H    6.366940   2.145840   1.079513   2.145850   3.377325
    30  H    6.187348   3.367862   2.148575   1.078758   2.142679
    31  H    5.350863   4.725980   4.065428   2.734059   2.132843
    32  H    5.520442   4.663247   4.104704   2.835174   2.118516
    33  H    5.499659   6.437256   6.318736   5.218420   4.069591
    34  H    5.078468   7.758121   7.972061   7.015869   5.661940
    35  H    3.644843   7.086600   7.428681   6.635497   5.316274
    36  H    3.161028   5.025734   5.127335   4.327165   3.217339
                   16         17         18         19         20
    16  C    0.000000
    17  C    1.500913   0.000000
    18  C    2.608126   1.415492   0.000000
    19  C    3.744868   2.284437   1.412818   0.000000
    20  C    3.740042   2.287249   2.284903   1.405106   0.000000
    21  C    2.591618   1.416710   2.289868   2.282007   1.413430
    22  H    5.403033   5.450699   5.996421   6.403180   6.120737
    23  H    5.613443   5.642604   6.468513   6.716011   6.066223
    24  H    6.146289   5.568327   5.542134   5.502064   5.459827
    25  H    6.699765   5.583793   5.268074   4.550546   4.404157
    26  H    5.925411   4.739538   4.893381   3.991342   3.055691
    27  H    4.690469   4.118729   4.970670   4.762186   3.682997
    28  H    5.304299   6.002417   6.998593   7.712198   7.262827
    29  H    4.656604   5.862364   6.982383   7.991853   7.663850
    30  H    2.713767   4.168013   5.272314   6.430544   6.273844
    31  H    1.096333   2.150126   3.307196   4.320939   4.157722
    32  H    1.096039   2.135287   2.719173   4.068282   4.404913
    33  H    2.971785   2.233384   1.085189   2.229815   3.331356
    34  H    4.744546   3.326984   2.223696   1.081504   2.219551
    35  H    4.735235   3.328562   3.325102   2.215379   1.081713
    36  H    2.934760   2.226758   3.331359   3.324371   2.230442
                   21         22         23         24         25
    21  C    0.000000
    22  H    5.520071   0.000000
    23  H    5.343923   1.768534   0.000000
    24  H    5.501095   2.654875   3.690628   0.000000
    25  H    5.084928   4.939064   5.316747   2.678888   0.000000
    26  H    3.651172   5.458163   5.050620   4.334425   2.667307
    27  H    3.159071   3.969040   3.000538   4.343480   4.331997
    28  H    6.182855   2.829414   2.614632   5.438431   7.435663
    29  H    6.362680   4.887742   4.808423   7.242083   9.007485
    30  H    4.953655   5.716735   5.792540   7.422615   8.661188
    31  H    2.932688   6.256410   6.245295   7.132505   7.555284
    32  H    3.466050   5.764549   6.254245   6.434079   7.136665
    33  H    3.338187   6.442580   7.134221   5.967891   5.887672
    34  H    3.325806   7.142194   7.551931   5.891754   4.610050
    35  H    2.226376   6.694779   6.460627   5.863455   4.379914
    36  H    1.083133   5.621035   5.113496   5.940930   5.612644
                   26         27         28         29         30
    26  H    0.000000
    27  H    2.684511   0.000000
    28  H    7.182378   4.842025   0.000000
    29  H    8.468653   6.090137   2.490921   0.000000
    30  H    7.922733   5.936706   4.279023   2.490903   0.000000
    31  H    6.470288   5.123468   5.792800   4.807532   2.612707
    32  H    6.695559   5.624823   5.716489   4.889095   2.832042
    33  H    5.858408   5.940085   7.427606   7.247002   5.441931
    34  H    4.369242   5.603968   8.661760   9.008301   7.436422
    35  H    2.607834   3.786581   7.916953   8.463619   7.179388
    36  H    3.798410   2.752040   5.928684   6.082556   4.837001
                   31         32         33         34         35
    31  H    0.000000
    32  H    1.768599   0.000000
    33  H    3.688731   2.655482   0.000000
    34  H    5.316423   4.939556   2.678908   0.000000
    35  H    5.051994   5.458344   4.334466   2.667402   0.000000
    36  H    3.003345   3.969012   4.343496   4.331993   2.684376
                   36
    36  H    0.000000
 Stoichiometry    C17H15Cl2NZr
 Framework group  C1[X(C17H15Cl2NZr)]
 Deg. of freedom   102
 Full point group                 C1      NOp   1
 RotChk:  IX=0 Diff= 1.48D-15
 Largest Abelian subgroup         C1      NOp   1
 Largest concise Abelian subgroup C1      NOp   1
                         Standard orientation:                         
 ---------------------------------------------------------------------
 Center     Atomic      Atomic             Coordinates (Angstroms)
 Number     Number       Type             X           Y           Z
 ---------------------------------------------------------------------
      1         40           0        0.830910    0.000004    0.089209
      2         17           0        2.797642   -0.002213    1.433346
      3         17           0       -0.264703   -0.001379    2.189820
      4          7           0       -1.670465    0.000098   -0.241230
      5          6           0       -2.342353    1.149538   -0.132016
      6          6           0       -1.543735    2.427293   -0.174587
      7          6           0       -0.113031    2.180358   -0.555139
      8          6           0        1.033649    2.474605    0.220867
      9          6           0        2.170538    2.119511   -0.538951
     10          6           0        1.734991    1.567608   -1.755551
     11          6           0        0.322028    1.602193   -1.773141
     12          6           0       -3.720662    1.189114    0.044921
     13          6           0       -4.422062   -0.000401    0.128273
     14          6           0       -3.719974   -1.189657    0.046723
     15          6           0       -2.341708   -1.149616   -0.130247
     16          6           0       -1.542258   -2.426898   -0.170606
     17          6           0       -0.112850   -2.179724   -0.555882
     18          6           0        1.036636   -2.474014    0.215931
     19          6           0        2.170712   -2.117077   -0.547301
     20          6           0        1.730639   -1.564429   -1.761895
     21          6           0        0.317717   -1.600062   -1.774763
     22          1           0       -1.586434    2.884233    0.820712
     23          1           0       -2.019050    3.121395   -0.877614
     24          1           0        1.042250    2.983774    1.179140
     25          1           0        3.198367    2.306544   -0.259248
     26          1           0        2.372128    1.306187   -2.589728
     27          1           0       -0.311237    1.377398   -2.622629
     28          1           0       -4.225534    2.139163    0.123859
     29          1           0       -5.492795   -0.000609    0.265679
     30          1           0       -4.224329   -2.139858    0.127114
     31          1           0       -2.018893   -3.123895   -0.869863
     32          1           0       -1.581774   -2.880311    0.826467
     33          1           0        1.048863   -2.984111    1.173681
     34          1           0        3.199617   -2.303491   -0.271159
     35          1           0        2.364661   -1.301623   -2.597990
     36          1           0       -0.318616   -1.374631   -2.621780
 ---------------------------------------------------------------------
 Rotational constants (GHZ):      0.4148509      0.2659357      0.2258726
 Leave Link  202 at Mon Sep 15 12:51:53 2025, MaxMem=    33554432 cpu:         0.0
 (Enter /appl/g09.shchoi/G09Files/g09/l601.exe)
 Leave Link  601 at Mon Sep 15 12:51:53 2025, MaxMem=    33554432 cpu:         0.0
 (Enter /appl/g09.shchoi/G09Files/g09/l9999.exe)
 1\1\GINC-MASTER\FOpt\RExternal='/home/rxn_grp/programs/xtb-gaussian'\Z
 DO\C17H15Cl2N1Zr1\RXN_GRP\15-Sep-2025\0\\#p external='/home/rxn_grp/pr
 ograms/xtb-gaussian' /sdd opt(nomicro)\\R\\0,1\Zr,-0.046130791,-0.0432
 632748,-0.2686100004\Cl,1.4903205936,0.2514240393,-2.0650568865\Cl,1.9
 245252339,-0.032022191,1.0464281485\N,-0.6321012963,-0.3346112704,2.16
 81545612\C,-0.6778561106,0.7398987831,2.9605622576\C,-0.731843111,2.09
 14326798,2.2952030184\C,-0.94343945,1.9775492139,0.8136598802\C,-0.077
 0315973,2.4421053613,-0.2047531018\C,-0.6871849284,2.1654103676,-1.448
 5718747\C,-1.8982312071,1.4946829609,-1.2079355017\C,-2.064075521,1.37
 49302435,0.1906799895\C,-0.6475357297,0.6410010998,4.3468904673\C,-0.5
 495682375,-0.6099127978,4.929534334\C,-0.4703200742,-1.7189285886,4.10
 63020438\C,-0.5065464633,-1.5410449507,2.7280482081\C,-0.369901722,-2.
 7242828092,1.8042114924\C,-0.6227418332,-2.3483676956,0.3733027818\C,0
 .2831817843,-2.4676913737,-0.7077531777\C,-0.3831382206,-2.038457307,-
 1.8772965867\C,-1.6740865068,-1.6136596925,-1.5204735197\C,-1.83006609
 26,-1.8027809018,-0.1284648321\H,0.2173248057,2.6023418783,2.493416743
 \H,-1.5294217459,2.6847158219,2.7576222969\H,0.8368551283,3.008074823,
 -0.0560778879\H,-0.3174351312,2.4797219182,-2.4150810492\H,-2.64063333
 53,1.252177319,-1.9563781544\H,-2.9554970814,1.0302736805,0.7003528162
 \H,-0.6913844389,1.5338734357,4.9506925423\H,-0.5237781782,-0.71745234
 37,6.0033681199\H,-0.3725918729,-2.7112576075,4.5179459436\H,-1.061327
 7563,-3.511096971,2.1279381616\H,0.6484641842,-3.1161320875,1.90758560
 1\H,1.2720619052,-2.9126344538,-0.6656029012\H,0.0107205021,-2.0947687
 775,-2.8829581274\H,-2.4573566661,-1.3365062215,-2.2131334956\H,-2.752
 5430391,-1.7009203102,0.4299596896\\Version=ES64L-G09RevD.01\HF=-57.91
 63336\RMSD=0.000e+00\RMSF=2.228e-06\Dipole=-2.4515022,-0.4247703,2.417
 8044\PG=C01 [X(C17H15Cl2N1Zr1)]\\@


 MUD THROWN IS GROUND LOST -- FROM A TEA BAG
 Job cpu time:       0 days  0 hours  0 minutes  4.7 seconds.
 File lengths (MBytes):  RWF=     10 Int=      0 D2E=      0 Chk=      3 Scr=      1
 Normal termination of Gaussian 09 at Mon Sep 15 12:51:53 2025.
