 Entering Gaussian System, Link 0=g09
 Input=final_relax_1.com
 Output=final_relax_1.log
 Initial command:
 /appl/g09.shchoi/G09Files/g09/l1.exe "/home/rxn_grp/scratch/metallogen_test/Gau-3329397.inp" -scrdir="/home/rxn_grp/scratch/metallogen_test/"
 Entering Link 1 = /appl/g09.shchoi/G09Files/g09/l1.exe PID=   3329403.
  
 Copyright (c) 1988,1990,1992,1993,1995,1998,2003,2009,2013,
            Gaussian, Inc.  All Rights Reserved.
  
 This is part of the Gaussian(R) 09 program.  It is based on
 the Gaussian(R) 03 system (copyright 2003, Gaussian, Inc.),
 the Gaussian(R) 98 system (copyright 1998, Gaussian, Inc.),
 the Gaussian(R) 94 system (copyright 1995, Gaussian, Inc.),
 the Gaussian 92(TM) system (copyright 1992, Gaussian, Inc.),
 the Gaussian 90(TM) system (copyright 1990, Gaussian, Inc.),
 the Gaussian 88(TM) system (copyright 1988, Gaussian, Inc.),
 the Gaussian 86(TM) system (copyright 1986, Carnegie Mellon
 University), and the Gaussian 82(TM) system (copyright 1983,
 Carnegie Mellon University). Gaussian is a federally registered
 trademark of Gaussian, Inc.
  
 This software contains proprietary and confidential information,
 including trade secrets, belonging to Gaussian, Inc.
  
 This software is provided under written license and may be
 used, copied, transmitted, or stored only in accord with that
 written license.
  
 The following legend is applicable only to US Government
 contracts under FAR:
  
                    RESTRICTED RIGHTS LEGEND
  
 Use, reproduction and disclosure by the US Government is
 subject to restrictions as set forth in subparagraphs (a)
 and (c) of the Commercial Computer Software - Restricted
 Rights clause in FAR 52.227-19.
  
 Gaussian, Inc.
 340 Quinnipiac St., Bldg. 40, Wallingford CT 06492
  
  
 ---------------------------------------------------------------
 Warning -- This program may not be used in any manner that
 competes with the business of Gaussian, Inc. or will provide
 assistance to any competitor of Gaussian, Inc.  The licensee
 of this program is prohibited from giving any competitor of
 Gaussian, Inc. access to this program.  By using this program,
 the user acknowledges that Gaussian, Inc. is engaged in the
 business of creating and licensing software in the field of
 computational chemistry and represents and warrants to the
 licensee that it is not a competitor of Gaussian, Inc. and that
 it will not use this program in any manner prohibited above.
 ---------------------------------------------------------------
  

 Cite this work as:
 Gaussian 09, Revision D.01,
 M. J. Frisch, G. W. Trucks, H. B. Schlegel, G. E. Scuseria, 
 M. A. Robb, J. R. Cheeseman, G. Scalmani, V. Barone, B. Mennucci, 
 G. A. Petersson, H. Nakatsuji, M. Caricato, X. Li, H. P. Hratchian, 
 A. F. Izmaylov, J. Bloino, G. Zheng, J. L. Sonnenberg, M. Hada, 
 M. Ehara, K. Toyota, R. Fukuda, J. Hasegawa, M. Ishida, T. Nakajima, 
 Y. Honda, O. Kitao, H. Nakai, T. Vreven, J. A. Montgomery, Jr., 
 J. E. Peralta, F. Ogliaro, M. Bearpark, J. J. Heyd, E. Brothers, 
 K. N. Kudin, V. N. Staroverov, T. Keith, R. Kobayashi, J. Normand, 
 K. Raghavachari, A. Rendell, J. C. Burant, S. S. Iyengar, J. Tomasi, 
 M. Cossi, N. Rega, J. M. Millam, M. Klene, J. E. Knox, J. B. Cross, 
 V. Bakken, C. Adamo, J. Jaramillo, R. Gomperts, R. E. Stratmann, 
 O. Yazyev, A. J. Austin, R. Cammi, C. Pomelli, J. W. Ochterski, 
 R. L. Martin, K. Morokuma, V. G. Zakrzewski, G. A. Voth, 
 P. Salvador, J. J. Dannenberg, S. Dapprich, A. D. Daniels, 
 O. Farkas, J. B. Foresman, J. V. Ortiz, J. Cioslowski, 
 and D. J. Fox, Gaussian, Inc., Wallingford CT, 2013.
 
 ******************************************
 Gaussian 09:  ES64L-G09RevD.01 24-Apr-2013
                15-Sep-2025 
 ******************************************
 -------------------------------------------------------------------
 #p external='/home/rxn_grp/programs/xtb-gaussian' /sdd opt(nomicro)
 -------------------------------------------------------------------
 1/14=-1,18=20,19=15,26=1,38=1/1,3;
 2/9=110,12=2,17=6,18=5,40=1/2;
 3/5=17,6=7,11=9,16=1,25=1,30=1,41=9900000,43=2,71=1/1;
 4/20=17,22=1,24=3,113=1,114=1/2;
 6/7=2,8=2,9=2,10=2/1;
 7/44=-1/16;
 1/14=-1,18=20,19=15,26=1/3(2);
 2/9=110/2;
 99//99;
 2/9=110/2;
 3/5=17,6=7,11=9,16=1,25=1,30=1,41=9900000,43=2,71=1/1;
 4/16=2,20=17,22=1,24=3,113=1,114=1/2;
 7/44=-1/16;
 1/14=-1,18=20,19=15,26=1/3(-4);
 2/9=110/2;
 6/7=2,8=2,9=2,10=2/1;
 99//99;
 Leave Link    1 at Mon Sep 15 19:24:04 2025, MaxMem=           0 cpu:         0.0
 (Enter /appl/g09.shchoi/G09Files/g09/l101.exe)
 -
 R
 -
 Symbolic Z-matrix:
 Charge =  0 Multiplicity = 1
 Rh                   -0.0005    0.        0.00094 
 C                    -2.37639   1.18084   2.02441 
 C                    -0.97399   0.80962   2.49502 
 C                     0.       -0.00218   1.52423 
 O                     0.84139  -0.55528   2.26656 
 H                    -2.92682   0.29308   1.71581 
 H                    -2.91572   1.64012   2.84987 
 H                    -2.36874   1.89838   1.20291 
 H                    -0.41898   1.71899   2.75566 
 H                    -1.04302   0.21668   3.41026 
 C                     0.00013  -0.00022  -1.52576 
 O                     0.06991   0.07707  -2.66591 
 C                    -0.00014   1.52602   0.00017 
 O                     0.11136   2.66762  -0.04934 
 H                     0.       -1.21098   0. 
 C                     1.5259   -0.00011   0.00055 
 O                     2.6589    0.12234  -0.0448 
 H                    -1.21109   0.       -0.00026 
 
 NAtoms=     18 NQM=       18 NQMF=       0 NMMI=      0 NMMIF=      0
                NMic=       0 NMicF=      0.
                    Isotopes and Nuclear Properties:
 (Nuclear quadrupole moments (NQMom) in fm**2, nuclear magnetic moments (NMagM)
  in nuclear magnetons)

  Atom         1           2           3           4           5           6           7           8           9          10
 IAtWgt=         103          12          12          12          16           1           1           1           1           1
 AtmWgt= 102.9048000  12.0000000  12.0000000  12.0000000  15.9949146   1.0078250   1.0078250   1.0078250   1.0078250   1.0078250
 NucSpn=           1           0           0           0           0           1           1           1           1           1
 AtZEff=   0.0000000   0.0000000   0.0000000   0.0000000   0.0000000   0.0000000   0.0000000   0.0000000   0.0000000   0.0000000
 NQMom=    0.0000000   0.0000000   0.0000000   0.0000000   0.0000000   0.0000000   0.0000000   0.0000000   0.0000000   0.0000000
 NMagM=   -0.0884000   0.0000000   0.0000000   0.0000000   0.0000000   2.7928460   2.7928460   2.7928460   2.7928460   2.7928460
 AtZNuc=  45.0000000   6.0000000   6.0000000   6.0000000   8.0000000   1.0000000   1.0000000   1.0000000   1.0000000   1.0000000

  Atom        11          12          13          14          15          16          17          18
 IAtWgt=          12          16          12          16           1          12          16           1
 AtmWgt=  12.0000000  15.9949146  12.0000000  15.9949146   1.0078250  12.0000000  15.9949146   1.0078250
 NucSpn=           0           0           0           0           1           0           0           1
 AtZEff=   0.0000000   0.0000000   0.0000000   0.0000000   0.0000000   0.0000000   0.0000000   0.0000000
 NQMom=    0.0000000   0.0000000   0.0000000   0.0000000   0.0000000   0.0000000   0.0000000   0.0000000
 NMagM=    0.0000000   0.0000000   0.0000000   0.0000000   2.7928460   0.0000000   0.0000000   2.7928460
 AtZNuc=   6.0000000   8.0000000   6.0000000   8.0000000   1.0000000   6.0000000   8.0000000   1.0000000
 Leave Link  101 at Mon Sep 15 19:24:04 2025, MaxMem=    33554432 cpu:         0.0
 (Enter /appl/g09.shchoi/G09Files/g09/l103.exe)

 GradGradGradGradGradGradGradGradGradGradGradGradGradGradGradGradGradGrad
 Berny optimization.
 Initialization pass.
                           ----------------------------
                           !    Initial Parameters    !
                           ! (Angstroms and Degrees)  !
 --------------------------                            --------------------------
 ! Name  Definition              Value          Derivative Info.                !
 --------------------------------------------------------------------------------
 ! R1    R(1,4)                  1.5233         estimate D2E/DX2                !
 ! R2    R(1,11)                 1.5267         estimate D2E/DX2                !
 ! R3    R(1,13)                 1.526          estimate D2E/DX2                !
 ! R4    R(1,15)                 1.211          estimate D2E/DX2                !
 ! R5    R(1,16)                 1.5264         estimate D2E/DX2                !
 ! R6    R(1,18)                 1.2106         estimate D2E/DX2                !
 ! R7    R(2,3)                  1.5251         estimate D2E/DX2                !
 ! R8    R(2,6)                  1.0892         estimate D2E/DX2                !
 ! R9    R(2,7)                  1.0878         estimate D2E/DX2                !
 ! R10   R(2,8)                  1.0908         estimate D2E/DX2                !
 ! R11   R(3,4)                  1.5969         estimate D2E/DX2                !
 ! R12   R(3,9)                  1.0968         estimate D2E/DX2                !
 ! R13   R(3,10)                 1.0927         estimate D2E/DX2                !
 ! R14   R(4,5)                  1.251          estimate D2E/DX2                !
 ! R15   R(11,12)                1.1449         estimate D2E/DX2                !
 ! R16   R(13,14)                1.1481         estimate D2E/DX2                !
 ! R17   R(16,17)                1.1405         estimate D2E/DX2                !
 ! A1    A(4,1,13)              90.1105         estimate D2E/DX2                !
 ! A2    A(4,1,15)              89.9623         estimate D2E/DX2                !
 ! A3    A(4,1,16)              89.9958         estimate D2E/DX2                !
 ! A4    A(4,1,18)              90.0755         estimate D2E/DX2                !
 ! A5    A(11,1,13)             89.9796         estimate D2E/DX2                !
 ! A6    A(11,1,15)             89.9476         estimate D2E/DX2                !
 ! A7    A(11,1,16)             89.9618         estimate D2E/DX2                !
 ! A8    A(11,1,18)             89.967          estimate D2E/DX2                !
 ! A9    A(13,1,16)             89.9905         estimate D2E/DX2                !
 ! A10   A(13,1,18)             90.0135         estimate D2E/DX2                !
 ! A11   A(15,1,16)             89.9723         estimate D2E/DX2                !
 ! A12   A(15,1,18)             90.0236         estimate D2E/DX2                !
 ! A13   A(3,2,6)              110.7157         estimate D2E/DX2                !
 ! A14   A(3,2,7)              108.9371         estimate D2E/DX2                !
 ! A15   A(3,2,8)              112.7101         estimate D2E/DX2                !
 ! A16   A(6,2,7)              107.9743         estimate D2E/DX2                !
 ! A17   A(6,2,8)              109.0462         estimate D2E/DX2                !
 ! A18   A(7,2,8)              107.2925         estimate D2E/DX2                !
 ! A19   A(2,3,4)              119.801          estimate D2E/DX2                !
 ! A20   A(2,3,9)              109.6836         estimate D2E/DX2                !
 ! A21   A(2,3,10)             109.4174         estimate D2E/DX2                !
 ! A22   A(4,3,9)              104.9108         estimate D2E/DX2                !
 ! A23   A(4,3,10)             105.7757         estimate D2E/DX2                !
 ! A24   A(9,3,10)             106.4298         estimate D2E/DX2                !
 ! A25   A(1,4,3)              127.3725         estimate D2E/DX2                !
 ! A26   A(1,4,5)              126.4603         estimate D2E/DX2                !
 ! A27   A(3,4,5)              105.9168         estimate D2E/DX2                !
 ! A28   L(4,1,11,13,-1)       180.0901         estimate D2E/DX2                !
 ! A29   L(13,1,15,4,-1)       180.0728         estimate D2E/DX2                !
 ! A30   L(16,1,18,4,-1)       180.0712         estimate D2E/DX2                !
 ! A31   L(1,11,12,14,-1)      175.928          estimate D2E/DX2                !
 ! A32   L(1,13,14,2,-1)       185.8163         estimate D2E/DX2                !
 ! A33   L(1,16,17,5,-1)       183.5882         estimate D2E/DX2                !
 ! A34   L(4,1,11,13,-2)       179.9576         estimate D2E/DX2                !
 ! A35   L(13,1,15,4,-2)       180.0372         estimate D2E/DX2                !
 ! A36   L(16,1,18,4,-2)       180.0042         estimate D2E/DX2                !
 ! A37   L(1,11,12,14,-2)      176.3566         estimate D2E/DX2                !
 ! A38   L(1,13,14,2,-2)       178.2199         estimate D2E/DX2                !
 ! A39   L(1,16,17,5,-2)       185.797          estimate D2E/DX2                !
 ! D1    D(13,1,4,3)            50.1643         estimate D2E/DX2                !
 ! D2    D(13,1,4,5)          -123.263          estimate D2E/DX2                !
 ! D3    D(15,1,4,3)          -129.8729         estimate D2E/DX2                !
 ! D4    D(15,1,4,5)            56.6998         estimate D2E/DX2                !
 ! D5    D(16,1,4,3)           140.1548         estimate D2E/DX2                !
 ! D6    D(16,1,4,5)           -33.2725         estimate D2E/DX2                !
 ! D7    D(18,1,4,3)           -39.8494         estimate D2E/DX2                !
 ! D8    D(18,1,4,5)           146.7234         estimate D2E/DX2                !
 ! D9    D(6,2,3,4)             55.9754         estimate D2E/DX2                !
 ! D10   D(6,2,3,9)            177.2952         estimate D2E/DX2                !
 ! D11   D(6,2,3,10)           -66.3065         estimate D2E/DX2                !
 ! D12   D(7,2,3,4)            174.5665         estimate D2E/DX2                !
 ! D13   D(7,2,3,9)            -64.1138         estimate D2E/DX2                !
 ! D14   D(7,2,3,10)            52.2845         estimate D2E/DX2                !
 ! D15   D(8,2,3,4)            -66.4692         estimate D2E/DX2                !
 ! D16   D(8,2,3,9)             54.8505         estimate D2E/DX2                !
 ! D17   D(8,2,3,10)           171.2488         estimate D2E/DX2                !
 ! D18   D(2,3,4,1)             27.6435         estimate D2E/DX2                !
 ! D19   D(2,3,4,5)           -157.8499         estimate D2E/DX2                !
 ! D20   D(9,3,4,1)            -96.0115         estimate D2E/DX2                !
 ! D21   D(9,3,4,5)             78.4952         estimate D2E/DX2                !
 ! D22   D(10,3,4,1)           151.6931         estimate D2E/DX2                !
 ! D23   D(10,3,4,5)           -33.8002         estimate D2E/DX2                !
 --------------------------------------------------------------------------------
 Trust Radius=3.00D-01 FncErr=1.00D-07 GrdErr=1.00D-07
 Number of steps in this run=     89 maximum allowed number of steps=    108.
 GradGradGradGradGradGradGradGradGradGradGradGradGradGradGradGradGradGrad

 Leave Link  103 at Mon Sep 15 19:24:04 2025, MaxMem=    33554432 cpu:         0.0
 (Enter /appl/g09.shchoi/G09Files/g09/l202.exe)
                          Input orientation:                          
 ---------------------------------------------------------------------
 Center     Atomic      Atomic             Coordinates (Angstroms)
 Number     Number       Type             X           Y           Z
 ---------------------------------------------------------------------
      1         45           0       -0.000500    0.000000    0.000935
      2          6           0       -2.376391    1.180841    2.024408
      3          6           0       -0.973990    0.809617    2.495022
      4          6           0        0.000000   -0.002179    1.524226
      5          8           0        0.841386   -0.555276    2.266564
      6          1           0       -2.926820    0.293083    1.715805
      7          1           0       -2.915724    1.640124    2.849871
      8          1           0       -2.368742    1.898383    1.202912
      9          1           0       -0.418981    1.718994    2.755655
     10          1           0       -1.043021    0.216680    3.410264
     11          6           0        0.000129   -0.000218   -1.525758
     12          8           0        0.069909    0.077067   -2.665909
     13          6           0       -0.000139    1.526016    0.000174
     14          8           0        0.111356    2.667624   -0.049339
     15          1           0        0.000000   -1.210982    0.000000
     16          6           0        1.525904   -0.000108    0.000546
     17          8           0        2.658899    0.122335   -0.044799
     18          1           0       -1.211091    0.000000   -0.000262
 ---------------------------------------------------------------------
                    Distance matrix (angstroms):
                    1          2          3          4          5
     1  Rh   0.000000
     2  C    3.336718   0.000000
     3  C    2.797076   1.525127   0.000000
     4  C    1.523293   2.701287   1.596908   0.000000
     5  O    2.479955   3.664264   2.282699   1.250965   0.000000
     6  H    3.404413   1.089184   2.165071   2.947907   3.901593
     7  H    4.393743   1.087755   2.141493   3.599436   4.390433
     8  H    3.264533   1.090771   2.190957   3.053902   4.178124
     9  H    3.273920   2.157727   1.096782   2.157406   2.645759
    10  H    3.571740   2.151297   1.092706   2.166317   2.335585
    11  C    1.526693   4.432429   4.215615   3.049985   3.923966
    12  O    2.668886   5.403867   5.316161   4.191467   5.032328
    13  C    1.526016   3.140580   2.772342   2.158267   3.190057
    14  O    2.670441   3.563683   3.332257   3.101025   4.035274
    15  H    1.210982   3.932719   3.355087   1.945371   2.505034
    16  C    1.526404   4.551765   3.623194   2.156383   2.431381
    17  O    2.662604   5.545827   4.485636   3.089836   3.017434
    18  H    1.210592   2.617556   2.634035   1.947000   3.107973
                    6          7          8          9         10
     6  H    0.000000
     7  H    1.760894   0.000000
     8  H    1.775246   1.754526   0.000000
     9  H    3.066556   2.499765   2.498952   0.000000
    10  H    2.534902   2.418109   3.075397   1.753535   0.000000
    11  C    4.377304   5.508089   4.081896   4.632693   5.049705
    12  O    5.312858   6.463821   4.922600   5.685798   6.178833
    13  C    3.609567   4.078533   2.682446   2.793805   3.798773
    14  O    4.240836   4.315598   2.882837   3.008180   4.394151
    15  H    3.711128   4.975140   4.089754   4.044000   3.841356
    16  C    4.780672   5.526036   4.496467   3.785302   4.274640
    17  O    5.859107   6.462137   5.476158   4.457040   5.064639
    18  H    2.444281   3.703922   2.528170   3.343270   3.421533
                   11         12         13         14         15
    11  C    0.000000
    12  O    1.144896   0.000000
    13  C    2.158207   3.035187   0.000000
    14  O    3.051158   3.682274   1.148108   0.000000
    15  H    1.947790   2.961592   2.736998   3.880518   0.000000
    16  C    2.158146   3.039056   2.158208   3.019972   1.947973
    17  O    3.045869   3.684445   3.007129   3.601179   2.974808
    18  H    1.947869   2.958475   1.948109   2.977834   1.712664
                   16         17         18
    16  C    0.000000
    17  O    1.140494   0.000000
    18  H    2.736995   3.872179   0.000000
 Stoichiometry    C6H7O4Rh
 Framework group  C1[X(C6H7O4Rh)]
 Deg. of freedom    48
 Full point group                 C1      NOp   1
 Largest Abelian subgroup         C1      NOp   1
 Largest concise Abelian subgroup C1      NOp   1
                         Standard orientation:                         
 ---------------------------------------------------------------------
 Center     Atomic      Atomic             Coordinates (Angstroms)
 Number     Number       Type             X           Y           Z
 ---------------------------------------------------------------------
      1         45           0       -0.280016   -0.042202   -0.379939
      2          6           0        2.831937   -1.238206   -0.242046
      3          6           0        2.463604    0.199914    0.107462
      4          6           0        1.010608    0.756694   -0.251581
      5          8           0        1.121575    2.001955   -0.295427
      6          1           0        2.690150   -1.424593   -1.305756
      7          1           0        3.882270   -1.399955   -0.009997
      8          1           0        2.257647   -1.970240    0.327250
      9          1           0        2.566228    0.355291    1.188322
     10          1           0        3.169955    0.882433   -0.371332
     11          6           0       -1.574509   -0.841021   -0.510199
     12          8           0       -2.562362   -1.419747   -0.507288
     13          6           0       -0.013083   -0.696371    0.972664
     14          8           0        0.089435   -1.129482    2.030991
     15          1           0       -0.493541    0.476691   -1.453082
     16          6           0       -1.044572    1.081549    0.314716
     17          8           0       -1.628769    1.839565    0.935079
     18          1           0        0.325063   -0.934201   -0.931075
 ---------------------------------------------------------------------
 Rotational constants (GHZ):      1.4099012      0.8899303      0.7448933
 Leave Link  202 at Mon Sep 15 19:24:04 2025, MaxMem=    33554432 cpu:         0.0
 (Enter /appl/g09.shchoi/G09Files/g09/l301.exe)
 Standard basis: SDD (6D, 10F)
 Ernie: Thresh=  0.10000D-02 Tol=  0.10000D-05 Strict=F.
 There are   153 symmetry adapted cartesian basis functions of A   symmetry.
 There are   153 symmetry adapted basis functions of A   symmetry.
   153 basis functions,   333 primitive gaussians,   153 cartesian basis functions
    46 alpha electrons       46 beta electrons
       nuclear repulsion energy       809.7341703294 Hartrees.
 IExCor=    0 DFT=F Ex=HF Corr=None ExCW=0 ScaHFX=  1.000000
 ScaDFX=  1.000000  1.000000  1.000000  1.000000 ScalE2=  1.000000  1.000000
 IRadAn=      0 IRanWt=     -1 IRanGd=            0 ICorTp=0 IEmpDi=  4
 NAtoms=   18 NActive=   18 NUniq=   18 SFac= 1.00D+00 NAtFMM=   60 NAOKFM=F Big=F
 Integral buffers will be    131072 words long.
 Raffenetti 1 integral format.
 Two-electron integral symmetry is turned on.
 Leave Link  301 at Mon Sep 15 19:24:04 2025, MaxMem=    33554432 cpu:         0.0
 (Enter /appl/g09.shchoi/G09Files/g09/l402.exe)
 External calculation of energy and first derivatives.
 Running external command "/home/rxn_grp/programs/xtb-gaussian R"
         input file       "/home/rxn_grp/scratch/metallogen_test/Gau-3329403.EIn"
         output file      "/home/rxn_grp/scratch/metallogen_test/Gau-3329403.EOu"
         message file     "/home/rxn_grp/scratch/metallogen_test/Gau-3329403.EMs"
         fchk file        "/home/rxn_grp/scratch/metallogen_test/Gau-3329403.EFC"
         mat. el file     "/home/rxn_grp/scratch/metallogen_test/Gau-3329403.EUF"

 ExternalExternalExternalExternalExternalExternalExternalExternalExternalExternal
 Output from external command:
 "/home/rxn_grp/programs/xtb-gaussian R /home/rxn_grp/scratch/metallogen_test/Gau-3329403.EIn /home/rxn_grp/scratch/metallogen_test/Gau-3329403.EOu /home/rxn_grp/scratch/metallogen_test/Gau-3329403.EMs /home/rxn_grp/scratch/metallogen_test/Gau-3329403.EFC /home/rxn_grp/scratch/metallogen_test/Gau-3329403.EUF"
 normal termination of xtb
  
 ------- xtb command was ---------
 ?> xtb ./Gau-3329403.EIn  --grad --charge 0  >/dev/null 2>Gau-3329403.EMs
 ---------------------------------
              Control returned to Gaussian.
 ~~~~~~~~~~~~~~~~~~~~~~~~~~~~~~~~~~~~~~~~~~~~~~~~~~~~~~~~~~~~~~~~~~~~~~~~~
 ExternalExternalExternalExternalExternalExternalExternalExternalExternalExternal

 Recovered energy= -35.9034310024     dipole=     -0.522250257059     -1.416594123620      0.516229941588
 Energy=    -35.9034310     NIter=   0.
 Dipole moment=      -0.522250      -1.416594       0.516230
 Leave Link  402 at Mon Sep 15 19:24:04 2025, MaxMem=    33554432 cpu:         0.0
 (Enter /appl/g09.shchoi/G09Files/g09/l601.exe)
 Leave Link  601 at Mon Sep 15 19:24:04 2025, MaxMem=    33554432 cpu:         0.0
 (Enter /appl/g09.shchoi/G09Files/g09/l716.exe)
 Dipole        =-5.22250257D-01-1.41659412D+00 5.16229942D-01
 ***** Axes restored to original set *****
 -------------------------------------------------------------------
 Center     Atomic                   Forces (Hartrees/Bohr)
 Number     Number              X              Y              Z
 -------------------------------------------------------------------
      1       45          -0.221081290   -0.187908562   -0.187332652
      2        6          -0.000102197   -0.000058112   -0.000241755
      3        6          -0.001532135   -0.000400552    0.002077894
      4        6          -0.007004736   -0.014516956    0.730035172
      5        8           0.003972974   -0.000880951    0.002085169
      6        1          -0.000201918    0.000015773   -0.000029353
      7        1           0.000058847   -0.000001003   -0.000051887
      8        1          -0.000023482   -0.000034297   -0.000100823
      9        1           0.000207316   -0.000217064   -0.000062395
     10        1           0.000099189    0.000237000   -0.000487374
     11        6          -0.008900056   -0.012571567   -0.587846934
     12        8           0.000011290    0.000266362    0.000236058
     13        6          -0.008230436    0.579212534    0.007515784
     14        8          -0.000179661   -0.000224244   -0.000197775
     15        1          -0.007475732   -0.338557281    0.013095286
     16        6           0.586319636   -0.013195487    0.012376502
     17        8          -0.000147341   -0.000079498   -0.000163444
     18        1          -0.335790268   -0.011086097    0.009092527
 -------------------------------------------------------------------
 Cartesian Forces:  Max     0.730035172 RMS     0.187865179
 Leave Link  716 at Mon Sep 15 19:24:04 2025, MaxMem=    33554432 cpu:         0.0
 (Enter /appl/g09.shchoi/G09Files/g09/l103.exe)

 GradGradGradGradGradGradGradGradGradGradGradGradGradGradGradGradGradGrad
 Berny optimization.
 FormGI is forming the generalized inverse of G from B-inverse, IUseBI=4.
 Internal  Forces:  Max     0.733254465 RMS     0.150586509
 Search for a local minimum.
 Step number   1 out of a maximum of   89
 All quantities printed in internal units (Hartrees-Bohrs-Radians)
 RMS Force = .15059D+00 SwitMx=.10000D-02 MixMth= 1
 Mixed Optimization -- RFO/linear search
 Second derivative matrix not updated -- first step.
 ITU=  0
     Eigenvalues ---    0.00230   0.00434   0.03258   0.03324   0.04825
     Eigenvalues ---    0.05024   0.05024   0.05066   0.05066   0.05125
     Eigenvalues ---    0.05125   0.05132   0.05388   0.05811   0.07943
     Eigenvalues ---    0.08974   0.10471   0.10716   0.10718   0.12640
     Eigenvalues ---    0.12640   0.13505   0.14244   0.16000   0.16000
     Eigenvalues ---    0.16000   0.21535   0.21535   0.22066   0.24018
     Eigenvalues ---    0.24884   0.25000   0.29878   0.34040   0.34502
     Eigenvalues ---    0.34724   0.34907   0.35073   0.56302   0.56388
     Eigenvalues ---    0.82881   0.93152   0.93277   0.93444   0.94628
     Eigenvalues ---    1.35903   1.38210   1.41458
 RFO step:  Lambda=-9.69429884D-01 EMin= 2.30000000D-03
 Linear search not attempted -- first point.
 Maximum step size (   0.300) exceeded in Quadratic search.
    -- Step size scaled by   0.413
 Iteration  1 RMS(Cart)=  0.05545622 RMS(Int)=  0.00015413
 Iteration  2 RMS(Cart)=  0.00027542 RMS(Int)=  0.00000374
 Iteration  3 RMS(Cart)=  0.00000009 RMS(Int)=  0.00000374
 ITry= 1 IFail=0 DXMaxC= 1.85D-01 DCOld= 1.00D+10 DXMaxT= 3.00D-01 DXLimC= 3.00D+00 Rises=F
 Variable       Old X    -DE/DX   Delta X   Delta X   Delta X     New X
                                 (Linear)    (Quad)   (Total)
    R1        2.87861   0.73325   0.00000   0.15802   0.15802   3.03663
    R2        2.88503   0.58761   0.00000   0.12762   0.12762   3.01265
    R3        2.88375   0.57898   0.00000   0.12555   0.12555   3.00930
    R4        2.28843   0.33854   0.00000   0.09120   0.09120   2.37963
    R5        2.88449   0.58617   0.00000   0.12722   0.12722   3.01171
    R6        2.28769   0.33578   0.00000   0.09041   0.09041   2.37810
    R7        2.88207   0.00035   0.00000   0.00011   0.00011   2.88219
    R8        2.05826   0.00010   0.00000   0.00003   0.00003   2.05829
    R9        2.05556  -0.00007   0.00000  -0.00002  -0.00002   2.05554
   R10        2.06126   0.00005   0.00000   0.00002   0.00002   2.06127
   R11        3.01772   0.00135   0.00000   0.00046   0.00046   3.01818
   R12        2.07262  -0.00009   0.00000  -0.00003  -0.00003   2.07259
   R13        2.06492  -0.00054   0.00000  -0.00017  -0.00017   2.06475
   R14        2.36398   0.00429   0.00000   0.00099   0.00099   2.36497
   R15        2.16354  -0.00022   0.00000  -0.00004  -0.00004   2.16350
   R16        2.16961  -0.00023   0.00000  -0.00004  -0.00004   2.16957
   R17        2.15522  -0.00015   0.00000  -0.00003  -0.00003   2.15520
    A1        1.57273   0.00558   0.00000   0.00210   0.00210   1.57483
    A2        1.57014  -0.01858   0.00000  -0.00708  -0.00708   1.56306
    A3        1.57072  -0.00569   0.00000  -0.00195  -0.00196   1.56876
    A4        1.57211  -0.00854   0.00000  -0.00340  -0.00340   1.56871
    A5        1.57044   0.01403   0.00000   0.00529   0.00528   1.57572
    A6        1.56988  -0.00102   0.00000  -0.00031  -0.00031   1.56957
    A7        1.57013   0.01539   0.00000   0.00561   0.00559   1.57572
    A8        1.57022  -0.00118   0.00000  -0.00026  -0.00026   1.56996
    A9        1.57063   0.01056   0.00000   0.00402   0.00402   1.57465
   A10        1.57103   0.00007   0.00000   0.00011   0.00011   1.57114
   A11        1.57031  -0.00347   0.00000  -0.00129  -0.00130   1.56901
   A12        1.57121  -0.00711   0.00000  -0.00283  -0.00284   1.56837
   A13        1.93235   0.00025   0.00000   0.00009   0.00009   1.93245
   A14        1.90131  -0.00007   0.00000  -0.00002  -0.00002   1.90129
   A15        1.96716  -0.00001   0.00000  -0.00000  -0.00000   1.96716
   A16        1.88451  -0.00008   0.00000  -0.00003  -0.00003   1.88448
   A17        1.90322  -0.00013   0.00000  -0.00005  -0.00005   1.90317
   A18        1.87261   0.00002   0.00000   0.00001   0.00001   1.87261
   A19        2.09092  -0.00038   0.00000  -0.00013  -0.00013   2.09079
   A20        1.91434   0.00031   0.00000   0.00011   0.00011   1.91445
   A21        1.90969   0.00017   0.00000   0.00006   0.00006   1.90976
   A22        1.83104  -0.00013   0.00000  -0.00006  -0.00006   1.83098
   A23        1.84613   0.00012   0.00000   0.00004   0.00004   1.84617
   A24        1.85755  -0.00007   0.00000  -0.00002  -0.00002   1.85753
   A25        2.22307   0.00080   0.00000   0.00027   0.00027   2.22334
   A26        2.20715  -0.00107   0.00000  -0.00036  -0.00036   2.20679
   A27        1.84860   0.00027   0.00000   0.00009   0.00009   1.84869
   A28        3.14317   0.01961   0.00000   0.00739   0.00738   3.15055
   A29        3.14286  -0.01300   0.00000  -0.00498  -0.00498   3.13788
   A30        3.14284  -0.01423   0.00000  -0.00536  -0.00537   3.13747
   A31        3.07052  -0.00061   0.00000  -0.00025  -0.00025   3.07028
   A32        3.24311   0.00002   0.00000   0.00001   0.00001   3.24312
   A33        3.20422   0.00033   0.00000   0.00013   0.00013   3.20435
   A34        3.14085   0.00971   0.00000   0.00366   0.00367   3.14452
   A35        3.14224  -0.00708   0.00000  -0.00273  -0.00273   3.13952
   A36        3.14167   0.01060   0.00000   0.00412   0.00411   3.14577
   A37        3.07800  -0.00001   0.00000  -0.00000  -0.00000   3.07800
   A38        3.11052   0.00056   0.00000   0.00023   0.00023   3.11075
   A39        3.24277  -0.00020   0.00000  -0.00008  -0.00008   3.24269
    D1        0.87553  -0.00369   0.00000  -0.00138  -0.00138   0.87415
    D2       -2.15134  -0.00374   0.00000  -0.00139  -0.00139  -2.15274
    D3       -2.26671   0.00338   0.00000   0.00135   0.00135  -2.26536
    D4        0.98960   0.00334   0.00000   0.00134   0.00133   0.99093
    D5        2.44616   0.00685   0.00000   0.00264   0.00263   2.44879
    D6       -0.58071   0.00681   0.00000   0.00262   0.00262  -0.57810
    D7       -0.69550  -0.00375   0.00000  -0.00148  -0.00148  -0.69698
    D8        2.56081  -0.00380   0.00000  -0.00150  -0.00149   2.55931
    D9        0.97696   0.00011   0.00000   0.00005   0.00005   0.97700
   D10        3.09439  -0.00010   0.00000  -0.00004  -0.00004   3.09435
   D11       -1.15727   0.00009   0.00000   0.00004   0.00004  -1.15723
   D12        3.04676   0.00012   0.00000   0.00005   0.00005   3.04681
   D13       -1.11900  -0.00008   0.00000  -0.00003  -0.00003  -1.11903
   D14        0.91254   0.00010   0.00000   0.00004   0.00004   0.91258
   D15       -1.16011   0.00010   0.00000   0.00004   0.00004  -1.16007
   D16        0.95732  -0.00011   0.00000  -0.00004  -0.00004   0.95728
   D17        2.98886   0.00008   0.00000   0.00003   0.00003   2.98889
   D18        0.48247  -0.00003   0.00000  -0.00002  -0.00002   0.48245
   D19       -2.75500  -0.00008   0.00000  -0.00003  -0.00003  -2.75503
   D20       -1.67572  -0.00006   0.00000  -0.00003  -0.00003  -1.67574
   D21        1.37000  -0.00011   0.00000  -0.00004  -0.00004   1.36996
   D22        2.64754   0.00003   0.00000   0.00001   0.00001   2.64755
   D23       -0.58992  -0.00002   0.00000  -0.00001  -0.00001  -0.58993
         Item               Value     Threshold  Converged?
 Maximum Force            0.733254     0.000450     NO 
 RMS     Force            0.150587     0.000300     NO 
 Maximum Displacement     0.185140     0.001800     NO 
 RMS     Displacement     0.055534     0.001200     NO 
 Predicted change in Energy=-3.612470D-01
 GradGradGradGradGradGradGradGradGradGradGradGradGradGradGradGradGradGrad

 Leave Link  103 at Mon Sep 15 19:24:04 2025, MaxMem=    33554432 cpu:         0.0
 (Enter /appl/g09.shchoi/G09Files/g09/l202.exe)
                          Input orientation:                          
 ---------------------------------------------------------------------
 Center     Atomic      Atomic             Coordinates (Angstroms)
 Number     Number       Type             X           Y           Z
 ---------------------------------------------------------------------
      1         45           0        0.002681   -0.003751   -0.029309
      2          6           0       -2.388686    1.182571    2.057701
      3          6           0       -0.990593    0.809844    2.539995
      4          6           0       -0.009914   -0.004326    1.577555
      5          8           0        0.825162   -0.558208    2.327276
      6          1           0       -2.937934    0.295321    1.745496
      7          1           0       -2.933991    1.643406    2.878346
      8          1           0       -2.373402    1.899309    1.235598
      9          1           0       -0.436332    1.718624    2.804212
     10          1           0       -1.067760    0.217910    3.455130
     11          6           0        0.010509   -0.017458   -1.623456
     12          8           0        0.084966    0.050558   -2.763881
     13          6           0        0.003163    1.588693   -0.035151
     14          8           0        0.113837    2.730114   -0.090035
     15          1           0       -0.000352   -1.262959   -0.020040
     16          6           0        1.596316   -0.010314   -0.013575
     17          8           0        2.730245    0.106498   -0.049003
     18          1           0       -1.255733   -0.003831   -0.036545
 ---------------------------------------------------------------------
                    Distance matrix (angstroms):
                    1          2          3          4          5
     1  Rh   0.000000
     2  C    3.388451   0.000000
     3  C    2.872256   1.525188   0.000000
     4  C    1.606914   2.701447   1.597152   0.000000
     5  O    2.556832   3.664942   2.283370   1.251486   0.000000
     6  H    3.447694   1.089200   2.165202   2.948100   3.902291
     7  H    4.448778   1.087743   2.141519   3.599625   4.391129
     8  H    3.296573   1.090780   2.191015   3.053987   4.178751
     9  H    3.344869   2.157850   1.096767   2.157563   2.646280
    10  H    3.651889   2.151330   1.092616   2.166498   2.336144
    11  C    1.594225   4.554901   4.361302   3.201103   4.069932
    12  O    2.736349   5.536069   5.464837   4.342820   5.180576
    13  C    1.592455   3.204045   2.868020   2.266871   3.296351
    14  O    2.736797   3.642840   3.438643   3.205204   4.142757
    15  H    1.259246   4.000220   3.439603   2.033853   2.586124
    16  C    1.593727   4.646870   3.726322   2.260909   2.524767
    17  O    2.729863   5.639112   4.587182   3.188487   3.117350
    18  H    1.258434   2.660263   2.714945   2.038967   3.197672
                    6          7          8          9         10
     6  H    0.000000
     7  H    1.760880   0.000000
     8  H    1.775237   1.754527   0.000000
     9  H    3.066706   2.499891   2.499088   0.000000
    10  H    2.535032   2.418168   3.075406   1.753436   0.000000
    11  C    4.487871   5.629811   4.187029   4.776808   5.197123
    12  O    5.434364   6.594391   5.045521   5.835911   6.327154
    13  C    3.673359   4.137431   2.712811   2.876112   3.899741
    14  O    4.314012   4.391068   2.938350   3.114878   4.502836
    15  H    3.764936   5.045179   4.148244   4.129930   3.925448
    16  C    4.873107   5.623316   4.578838   3.880826   4.379646
    17  O    5.948457   6.558585   5.559819   4.557082   5.168772
    18  H    2.468798   3.745201   2.547445   3.421721   3.503755
                   11         12         13         14         15
    11  C    0.000000
    12  O    1.144876   0.000000
    13  C    2.258869   3.133452   0.000000
    14  O    3.148207   3.785539   1.148086   0.000000
    15  H    2.030352   3.043233   2.851694   3.995318   0.000000
    16  C    2.259768   3.138800   2.257305   3.116654   2.029412
    17  O    3.145033   3.790936   3.103881   3.705487   3.054900
    18  H    2.030231   3.039538   2.030013   3.058274   1.778104
                   16         17         18
    16  C    0.000000
    17  O    1.140480   0.000000
    18  H    2.852149   3.987524   0.000000
 Stoichiometry    C6H7O4Rh
 Framework group  C1[X(C6H7O4Rh)]
 Deg. of freedom    48
 Full point group                 C1      NOp   1
 RotChk:  IX=0 Diff= 2.84D-02
 Largest Abelian subgroup         C1      NOp   1
 Largest concise Abelian subgroup C1      NOp   1
                         Standard orientation:                         
 ---------------------------------------------------------------------
 Center     Atomic      Atomic             Coordinates (Angstroms)
 Number     Number       Type             X           Y           Z
 ---------------------------------------------------------------------
      1         45           0       -0.291980   -0.043861   -0.386894
      2          6           0        2.858628   -1.283735   -0.252784
      3          6           0        2.531492    0.164206    0.097425
      4          6           0        1.092875    0.760750   -0.256707
      5          8           0        1.237884    2.002997   -0.301582
      6          1           0        2.707918   -1.466591   -1.315896
      7          1           0        3.904905   -1.474389   -0.024440
      8          1           0        2.266358   -1.999401    0.318915
      9          1           0        2.642215    0.317162    1.177815
     10          1           0        3.254612    0.826751   -0.384179
     11          6           0       -1.666013   -0.839393   -0.530824
     12          8           0       -2.669285   -1.390917   -0.533412
     13          6           0       -0.029307   -0.736833    1.022612
     14          8           0        0.061941   -1.176972    2.079046
     15          1           0       -0.494410    0.504476   -1.502263
     16          6           0       -1.052730    1.154814    0.337262
     17          8           0       -1.613600    1.931438    0.956112
     18          1           0        0.312312   -0.985486   -0.962941
 ---------------------------------------------------------------------
 Rotational constants (GHZ):      1.3454530      0.8411685      0.7067767
 Leave Link  202 at Mon Sep 15 19:24:04 2025, MaxMem=    33554432 cpu:         0.0
 (Enter /appl/g09.shchoi/G09Files/g09/l301.exe)
 Standard basis: SDD (6D, 10F)
 Ernie: Thresh=  0.10000D-02 Tol=  0.10000D-05 Strict=F.
 There are   153 symmetry adapted cartesian basis functions of A   symmetry.
 There are   153 symmetry adapted basis functions of A   symmetry.
   153 basis functions,   333 primitive gaussians,   153 cartesian basis functions
    46 alpha electrons       46 beta electrons
       nuclear repulsion energy       788.8441233770 Hartrees.
 IExCor=    0 DFT=F Ex=HF Corr=None ExCW=0 ScaHFX=  1.000000
 ScaDFX=  1.000000  1.000000  1.000000  1.000000 ScalE2=  1.000000  1.000000
 IRadAn=      0 IRanWt=     -1 IRanGd=            0 ICorTp=0 IEmpDi=  4
 NAtoms=   18 NActive=   18 NUniq=   18 SFac= 1.00D+00 NAtFMM=   60 NAOKFM=F Big=F
 Integral buffers will be    131072 words long.
 Raffenetti 1 integral format.
 Two-electron integral symmetry is turned on.
 Leave Link  301 at Mon Sep 15 19:24:04 2025, MaxMem=    33554432 cpu:         0.0
 (Enter /appl/g09.shchoi/G09Files/g09/l402.exe)
 External calculation of energy and first derivatives.
 Running external command "/home/rxn_grp/programs/xtb-gaussian R"
         input file       "/home/rxn_grp/scratch/metallogen_test/Gau-3329403.EIn"
         output file      "/home/rxn_grp/scratch/metallogen_test/Gau-3329403.EOu"
         message file     "/home/rxn_grp/scratch/metallogen_test/Gau-3329403.EMs"
         fchk file        "/home/rxn_grp/scratch/metallogen_test/Gau-3329403.EFC"
         mat. el file     "/home/rxn_grp/scratch/metallogen_test/Gau-3329403.EUF"

 ExternalExternalExternalExternalExternalExternalExternalExternalExternalExternal
 Output from external command:
 "/home/rxn_grp/programs/xtb-gaussian R /home/rxn_grp/scratch/metallogen_test/Gau-3329403.EIn /home/rxn_grp/scratch/metallogen_test/Gau-3329403.EOu /home/rxn_grp/scratch/metallogen_test/Gau-3329403.EMs /home/rxn_grp/scratch/metallogen_test/Gau-3329403.EFC /home/rxn_grp/scratch/metallogen_test/Gau-3329403.EUF"
 normal termination of xtb
  
 ------- xtb command was ---------
 ?> xtb ./Gau-3329403.EIn  --grad --charge 0  >/dev/null 2>Gau-3329403.EMs
 ---------------------------------
              Control returned to Gaussian.
 ~~~~~~~~~~~~~~~~~~~~~~~~~~~~~~~~~~~~~~~~~~~~~~~~~~~~~~~~~~~~~~~~~~~~~~~~~
 ExternalExternalExternalExternalExternalExternalExternalExternalExternalExternal

 Recovered energy= -36.2261036568     dipole=     -0.668630678352     -1.342905382890      0.645824918025
 Energy=    -36.2261037     NIter=   0.
 Dipole moment=      -0.668631      -1.342905       0.645825
 Leave Link  402 at Mon Sep 15 19:24:04 2025, MaxMem=    33554432 cpu:         0.0
 (Enter /appl/g09.shchoi/G09Files/g09/l716.exe)
 Dipole        =-6.68630678D-01-1.34290538D+00 6.45824918D-01
 ***** Axes restored to original set *****
 -------------------------------------------------------------------
 Center     Atomic                   Forces (Hartrees/Bohr)
 Number     Number              X              Y              Z
 -------------------------------------------------------------------
      1       45          -0.111908466   -0.090944796   -0.118652548
      2        6          -0.000039065    0.000000284    0.000043596
      3        6          -0.001124889   -0.000777931   -0.002824102
      4        6          -0.006031013   -0.011332109    0.463746796
      5        8          -0.001524398    0.002129245   -0.009733835
      6        1           0.000037870    0.000302642    0.000021938
      7        1          -0.000041926    0.000038495    0.000081210
      8        1           0.000182023   -0.000334165    0.000042698
      9        1           0.000140779   -0.000270035   -0.000450727
     10        1           0.000205501   -0.000023895   -0.000956437
     11        6          -0.005351793   -0.012341640   -0.376883492
     12        8          -0.000343710   -0.000438908    0.005864104
     13        6          -0.005765625    0.373541348    0.006691763
     14        8          -0.000922431   -0.005500034   -0.000393500
     15        1          -0.008205332   -0.232662071    0.012799815
     16        6           0.376305483   -0.010068377    0.014068672
     17        8          -0.004957534   -0.001201781    0.000222277
     18        1          -0.230655473   -0.010116272    0.006311771
 -------------------------------------------------------------------
 Cartesian Forces:  Max     0.463746796 RMS     0.120319719
 Leave Link  716 at Mon Sep 15 19:24:04 2025, MaxMem=    33554432 cpu:         0.0
 (Enter /appl/g09.shchoi/G09Files/g09/l103.exe)

 GradGradGradGradGradGradGradGradGradGradGradGradGradGradGradGradGradGrad
 Berny optimization.
 Using GEDIIS/GDIIS optimizer.
 FormGI is forming the generalized inverse of G from B-inverse, IUseBI=4.
 Internal  Forces:  Max     0.450046038 RMS     0.095666592
 Search for a local minimum.
 Step number   2 out of a maximum of   89
 All quantities printed in internal units (Hartrees-Bohrs-Radians)
 RMS Force = .95667D-01 SwitMx=.10000D-02 MixMth= 1
 Mixed Optimization -- RFO/linear search
 Update second derivatives using D2CorX and points    1    2
 DE= -3.23D-01 DEPred=-3.61D-01 R= 8.93D-01
 TightC=F SS=  1.41D+00  RLast= 3.00D-01 DXNew= 5.0454D-01 9.0013D-01
 Trust test= 8.93D-01 RLast= 3.00D-01 DXMaxT set to 5.05D-01
 ITU=  1  0
 Use linear search instead of GDIIS.
 Linear search step of   0.600 exceeds DXMaxT=   0.505 but not scaled.
 Quartic linear search produced a step of  2.00000.
 Iteration  1 RMS(Cart)=  0.08215919 RMS(Int)=  0.01670946
 Iteration  2 RMS(Cart)=  0.03187506 RMS(Int)=  0.00005640
 Iteration  3 RMS(Cart)=  0.00010892 RMS(Int)=  0.00002249
 Iteration  4 RMS(Cart)=  0.00000001 RMS(Int)=  0.00002249
 ITry= 1 IFail=0 DXMaxC= 3.71D-01 DCOld= 1.00D+10 DXMaxT= 5.05D-01 DXLimC= 3.00D+00 Rises=F
 Variable       Old X    -DE/DX   Delta X   Delta X   Delta X     New X
                                 (Linear)    (Quad)   (Total)
    R1        3.03663   0.45005   0.31604   0.00000   0.31604   3.35267
    R2        3.01265   0.37108   0.25523   0.00000   0.25523   3.26788
    R3        3.00930   0.36802   0.25110   0.00000   0.25110   3.26041
    R4        2.37963   0.23277   0.18241   0.00000   0.18241   2.56204
    R5        3.01171   0.37152   0.25444   0.00000   0.25444   3.26615
    R6        2.37810   0.23062   0.18082   0.00000   0.18082   2.55892
    R7        2.88219  -0.00021   0.00023   0.00000   0.00023   2.88242
    R8        2.05829  -0.00027   0.00006   0.00000   0.00006   2.05835
    R9        2.05554   0.00010  -0.00004   0.00000  -0.00004   2.05549
   R10        2.06127  -0.00025   0.00003   0.00000   0.00003   2.06131
   R11        3.01818  -0.00259   0.00092   0.00000   0.00092   3.01910
   R12        2.07259  -0.00026  -0.00006   0.00000  -0.00006   2.07253
   R13        2.06475  -0.00080  -0.00034   0.00000  -0.00034   2.06440
   R14        2.36497  -0.00780   0.00197   0.00000   0.00197   2.36694
   R15        2.16350  -0.00589  -0.00008   0.00000  -0.00008   2.16343
   R16        2.16957  -0.00554  -0.00008   0.00000  -0.00008   2.16949
   R17        2.15520  -0.00506  -0.00005   0.00000  -0.00005   2.15514
    A1        1.57483   0.00305   0.00420   0.00000   0.00420   1.57902
    A2        1.56306  -0.01512  -0.01416   0.00000  -0.01417   1.54889
    A3        1.56876  -0.00590  -0.00392   0.00000  -0.00397   1.56479
    A4        1.56871  -0.00668  -0.00681   0.00000  -0.00681   1.56190
    A5        1.57572   0.01271   0.01057   0.00000   0.01055   1.58628
    A6        1.56957  -0.00068  -0.00062   0.00000  -0.00065   1.56892
    A7        1.57572   0.01358   0.01119   0.00000   0.01109   1.58682
    A8        1.56996  -0.00115  -0.00053   0.00000  -0.00057   1.56938
    A9        1.57465   0.00870   0.00804   0.00000   0.00804   1.58269
   A10        1.57114   0.00049   0.00022   0.00000   0.00023   1.57137
   A11        1.56901  -0.00222  -0.00260   0.00000  -0.00267   1.56634
   A12        1.56837  -0.00706  -0.00568   0.00000  -0.00579   1.56258
   A13        1.93245   0.00023   0.00018   0.00000   0.00018   1.93263
   A14        1.90129   0.00003  -0.00005   0.00000  -0.00005   1.90124
   A15        1.96716  -0.00031  -0.00001   0.00000  -0.00001   1.96715
   A16        1.88448  -0.00006  -0.00006   0.00000  -0.00006   1.88442
   A17        1.90317  -0.00004  -0.00009   0.00000  -0.00009   1.90308
   A18        1.87261   0.00016   0.00001   0.00000   0.00001   1.87263
   A19        2.09079   0.00063  -0.00027   0.00000  -0.00027   2.09052
   A20        1.91445  -0.00003   0.00022   0.00000   0.00022   1.91468
   A21        1.90976   0.00008   0.00013   0.00000   0.00013   1.90989
   A22        1.83098  -0.00050  -0.00011   0.00000  -0.00011   1.83087
   A23        1.84617  -0.00048   0.00008   0.00000   0.00008   1.84625
   A24        1.85753   0.00024  -0.00005   0.00000  -0.00005   1.85748
   A25        2.22334  -0.00064   0.00054   0.00000   0.00054   2.22388
   A26        2.20679  -0.00714  -0.00072   0.00000  -0.00072   2.20606
   A27        1.84869   0.00776   0.00018   0.00000   0.00018   1.84887
   A28        3.15055   0.01576   0.01477   0.00000   0.01475   3.16530
   A29        3.13788  -0.01207  -0.00996   0.00000  -0.00997   3.12791
   A30        3.13747  -0.01258  -0.01073   0.00000  -0.01078   3.12669
   A31        3.07028   0.00019  -0.00050   0.00000  -0.00050   3.06978
   A32        3.24312   0.00032   0.00002   0.00000   0.00002   3.24314
   A33        3.20435  -0.00043   0.00027   0.00000   0.00027   3.20462
   A34        3.14452   0.00782   0.00733   0.00000   0.00738   3.15189
   A35        3.13952  -0.00652  -0.00545   0.00000  -0.00545   3.13407
   A36        3.14577   0.00912   0.00822   0.00000   0.00817   3.15394
   A37        3.07800  -0.00009  -0.00001   0.00000  -0.00001   3.07799
   A38        3.11075   0.00158   0.00045   0.00000   0.00045   3.11121
   A39        3.24269  -0.00133  -0.00016   0.00000  -0.00016   3.24253
    D1        0.87415  -0.00312  -0.00276   0.00000  -0.00276   0.87140
    D2       -2.15274  -0.00331  -0.00279   0.00000  -0.00279  -2.15553
    D3       -2.26536   0.00341   0.00270   0.00000   0.00269  -2.26267
    D4        0.99093   0.00321   0.00267   0.00000   0.00266   0.99359
    D5        2.44879   0.00555   0.00526   0.00000   0.00525   2.45404
    D6       -0.57810   0.00535   0.00523   0.00000   0.00521  -0.57288
    D7       -0.69698  -0.00357  -0.00295   0.00000  -0.00292  -0.69990
    D8        2.55931  -0.00377  -0.00298   0.00000  -0.00295   2.55636
    D9        0.97700   0.00002   0.00009   0.00000   0.00009   0.97709
   D10        3.09435  -0.00021  -0.00007   0.00000  -0.00007   3.09428
   D11       -1.15723   0.00012   0.00007   0.00000   0.00007  -1.15716
   D12        3.04681   0.00010   0.00010   0.00000   0.00010   3.04691
   D13       -1.11903  -0.00013  -0.00006   0.00000  -0.00006  -1.11909
   D14        0.91258   0.00020   0.00008   0.00000   0.00008   0.91266
   D15       -1.16007   0.00013   0.00008   0.00000   0.00008  -1.15999
   D16        0.95728  -0.00009  -0.00008   0.00000  -0.00008   0.95720
   D17        2.98889   0.00023   0.00006   0.00000   0.00006   2.98895
   D18        0.48245   0.00017  -0.00003   0.00000  -0.00003   0.48242
   D19       -2.75503  -0.00039  -0.00006   0.00000  -0.00006  -2.75510
   D20       -1.67574   0.00020  -0.00005   0.00000  -0.00005  -1.67579
   D21        1.36996  -0.00036  -0.00008   0.00000  -0.00008   1.36988
   D22        2.64755   0.00032   0.00002   0.00000   0.00002   2.64757
   D23       -0.58993  -0.00023  -0.00001   0.00000  -0.00001  -0.58995
         Item               Value     Threshold  Converged?
 Maximum Force            0.450046     0.000450     NO 
 RMS     Force            0.095667     0.000300     NO 
 Maximum Displacement     0.370901     0.001800     NO 
 RMS     Displacement     0.111320     0.001200     NO 
 Predicted change in Energy=-2.185578D-01
 GradGradGradGradGradGradGradGradGradGradGradGradGradGradGradGradGradGrad

 Leave Link  103 at Mon Sep 15 19:24:04 2025, MaxMem=    33554432 cpu:         0.0
 (Enter /appl/g09.shchoi/G09Files/g09/l202.exe)
                          Input orientation:                          
 ---------------------------------------------------------------------
 Center     Atomic      Atomic             Coordinates (Angstroms)
 Number     Number       Type             X           Y           Z
 ---------------------------------------------------------------------
      1         45           0        0.010038   -0.010435   -0.090803
      2          6           0       -2.413956    1.185920    2.125731
      3          6           0       -1.024235    0.810192    2.629784
      4          6           0       -0.031157   -0.008104    1.682873
      5          8           0        0.791920   -0.563770    2.446161
      6          1           0       -2.960922    0.299751    1.806418
      7          1           0       -2.970386    1.649378    2.937351
      8          1           0       -2.384278    1.901434    1.302933
      9          1           0       -0.471440    1.717739    2.901089
     10          1           0       -1.116713    0.219825    3.544295
     11          6           0        0.032364   -0.053700   -1.819406
     12          8           0        0.115076   -0.003683   -2.960154
     13          6           0        0.010736    1.714818   -0.107255
     14          8           0        0.119713    2.855832   -0.172165
     15          1           0       -0.001136   -1.365802   -0.059572
     16          6           0        1.737546   -0.031213   -0.040271
     17          8           0        2.872957    0.074668   -0.056496
     18          1           0       -1.343943   -0.010848   -0.110198
 ---------------------------------------------------------------------
                    Distance matrix (angstroms):
                    1          2          3          4          5
     1  Rh   0.000000
     2  C    3.495717   0.000000
     3  C    3.024028   1.525308   0.000000
     4  C    1.774156   2.701767   1.597639   0.000000
     5  O    2.711772   3.666297   2.284712   1.252530   0.000000
     6  H    3.538682   1.089233   2.165465   2.948485   3.903687
     7  H    4.561538   1.087720   2.141573   3.600004   4.392521
     8  H    3.366080   1.090797   2.191132   3.054156   4.180005
     9  H    3.488528   2.158097   1.096737   2.157877   2.647324
    10  H    3.812680   2.151396   1.092436   2.166858   2.337263
    11  C    1.729288   4.804711   4.653816   3.503152   4.362586
    12  O    2.871280   5.803222   5.762623   4.645331   5.477231
    13  C    1.725332   3.338426   3.062824   2.484909   3.510292
    14  O    2.869518   3.806365   3.652969   3.415561   4.359034
    15  H    1.355773   4.136246   3.607535   2.209153   2.747888
    16  C    1.728372   4.838176   3.932504   2.469427   2.712963
    17  O    2.864389   5.826530   4.790115   3.386169   3.316868
    18  H    1.354120   2.752555   2.878162   2.222277   3.376775
                    6          7          8          9         10
     6  H    0.000000
     7  H    1.760850   0.000000
     8  H    1.775220   1.754531   0.000000
     9  H    3.067005   2.500144   2.499359   0.000000
    10  H    2.535294   2.418286   3.075425   1.753237   0.000000
    11  C    4.715007   5.877391   4.405872   5.067039   5.492220
    12  O    5.681025   6.858080   5.296240   6.136894   6.623829
    13  C    3.807271   4.261572   2.785596   3.046742   4.103652
    14  O    4.465272   4.546794   3.058882   3.330106   4.721161
    15  H    3.875089   5.185489   4.267390   4.300573   4.092258
    16  C    5.059190   5.818526   4.746447   4.073089   4.589000
    17  O    6.128235   6.751851   5.729192   4.757309   5.376266
    18  H    2.526759   3.832652   2.595392   3.580101   3.668809
                   11         12         13         14         15
    11  C    0.000000
    12  O    1.144836   0.000000
    13  C    2.461622   3.332142   0.000000
    14  O    3.344608   3.993711   1.148042   0.000000
    15  H    2.195393   3.206595   3.081012   4.224864   0.000000
    16  C    2.464441   3.340491   2.456621   3.312070   2.191921
    17  O    3.345638   4.005405   3.299240   3.915176   3.214868
    18  H    2.194869   3.201724   2.193875   3.219314   1.908296
                   16         17         18
    16  C    0.000000
    17  O    1.140453   0.000000
    18  H    3.082349   4.218109   0.000000
 Stoichiometry    C6H7O4Rh
 Framework group  C1[X(C6H7O4Rh)]
 Deg. of freedom    48
 Full point group                 C1      NOp   1
 RotChk:  IX=0 Diff= 4.92D-02
 Largest Abelian subgroup         C1      NOp   1
 Largest concise Abelian subgroup C1      NOp   1
                         Standard orientation:                         
 ---------------------------------------------------------------------
 Center     Atomic      Atomic             Coordinates (Angstroms)
 Number     Number       Type             X           Y           Z
 ---------------------------------------------------------------------
      1         45           0       -0.316794   -0.047217   -0.400058
      2          6           0        2.919481   -1.362941   -0.275845
      3          6           0        2.665854    0.099286    0.076480
      4          6           0        1.254885    0.765109   -0.267463
      5          8           0        1.459560    1.999935   -0.313777
      6          1           0        2.752357   -1.538258   -1.337806
      7          1           0        3.956835   -1.604358   -0.055052
      8          1           0        2.297193   -2.048982    0.300300
      9          1           0        2.791620    0.246706    1.155962
     10          1           0        3.416666    0.725887   -0.410416
     11          6           0       -1.846760   -0.834292   -0.573709
     12          8           0       -2.875305   -1.336838   -0.587545
     13          6           0       -0.062725   -0.818291    1.122330
     14          8           0        0.008332   -1.271533    2.174719
     15          1           0       -0.495503    0.559187   -1.599415
     16          6           0       -1.066730    1.298535    0.383406
     17          8           0       -1.584277    2.106573    0.999729
     18          1           0        0.286077   -1.084969   -1.027160
 ---------------------------------------------------------------------
 Rotational constants (GHZ):      1.2291808      0.7535780      0.6380666
 Leave Link  202 at Mon Sep 15 19:24:04 2025, MaxMem=    33554432 cpu:         0.0
 (Enter /appl/g09.shchoi/G09Files/g09/l301.exe)
 Standard basis: SDD (6D, 10F)
 Ernie: Thresh=  0.10000D-02 Tol=  0.10000D-05 Strict=F.
 There are   153 symmetry adapted cartesian basis functions of A   symmetry.
 There are   153 symmetry adapted basis functions of A   symmetry.
   153 basis functions,   333 primitive gaussians,   153 cartesian basis functions
    46 alpha electrons       46 beta electrons
       nuclear repulsion energy       751.0352353185 Hartrees.
 IExCor=    0 DFT=F Ex=HF Corr=None ExCW=0 ScaHFX=  1.000000
 ScaDFX=  1.000000  1.000000  1.000000  1.000000 ScalE2=  1.000000  1.000000
 IRadAn=      0 IRanWt=     -1 IRanGd=            0 ICorTp=0 IEmpDi=  4
 NAtoms=   18 NActive=   18 NUniq=   18 SFac= 1.00D+00 NAtFMM=   60 NAOKFM=F Big=F
 Integral buffers will be    131072 words long.
 Raffenetti 1 integral format.
 Two-electron integral symmetry is turned on.
 Leave Link  301 at Mon Sep 15 19:24:04 2025, MaxMem=    33554432 cpu:         0.0
 (Enter /appl/g09.shchoi/G09Files/g09/l402.exe)
 External calculation of energy and first derivatives.
 Running external command "/home/rxn_grp/programs/xtb-gaussian R"
         input file       "/home/rxn_grp/scratch/metallogen_test/Gau-3329403.EIn"
         output file      "/home/rxn_grp/scratch/metallogen_test/Gau-3329403.EOu"
         message file     "/home/rxn_grp/scratch/metallogen_test/Gau-3329403.EMs"
         fchk file        "/home/rxn_grp/scratch/metallogen_test/Gau-3329403.EFC"
         mat. el file     "/home/rxn_grp/scratch/metallogen_test/Gau-3329403.EUF"

 ExternalExternalExternalExternalExternalExternalExternalExternalExternalExternal
 Output from external command:
 "/home/rxn_grp/programs/xtb-gaussian R /home/rxn_grp/scratch/metallogen_test/Gau-3329403.EIn /home/rxn_grp/scratch/metallogen_test/Gau-3329403.EOu /home/rxn_grp/scratch/metallogen_test/Gau-3329403.EMs /home/rxn_grp/scratch/metallogen_test/Gau-3329403.EFC /home/rxn_grp/scratch/metallogen_test/Gau-3329403.EUF"
 normal termination of xtb
  
 ------- xtb command was ---------
 ?> xtb ./Gau-3329403.EIn  --grad --charge 0  >/dev/null 2>Gau-3329403.EMs
 ---------------------------------
              Control returned to Gaussian.
 ~~~~~~~~~~~~~~~~~~~~~~~~~~~~~~~~~~~~~~~~~~~~~~~~~~~~~~~~~~~~~~~~~~~~~~~~~
 ExternalExternalExternalExternalExternalExternalExternalExternalExternalExternal

 Recovered energy= -36.5516774244     dipole=     -0.880198657305     -1.218956319070      0.840814061114
 Energy=    -36.5516774     NIter=   0.
 Dipole moment=      -0.880199      -1.218956       0.840814
 Leave Link  402 at Mon Sep 15 19:24:05 2025, MaxMem=    33554432 cpu:         0.0
 (Enter /appl/g09.shchoi/G09Files/g09/l716.exe)
 Dipole        =-8.80198657D-01-1.21895632D+00 8.40814061D-01
 ***** Axes restored to original set *****
 -------------------------------------------------------------------
 Center     Atomic                   Forces (Hartrees/Bohr)
 Number     Number              X              Y              Z
 -------------------------------------------------------------------
      1       45          -0.005890868    0.000750576   -0.059112434
      2        6           0.000249910   -0.000083471    0.000163419
      3        6          -0.000342971   -0.001138068   -0.010816521
      4        6           0.000623459   -0.008969019    0.197682272
      5        8          -0.010030244    0.007042988   -0.028554121
      6        1           0.000476265    0.000670679    0.000033231
      7        1          -0.000188673    0.000083697    0.000297214
      8        1           0.000685223   -0.000905821    0.000178700
      9        1           0.000121523   -0.000472008   -0.001178651
     10        1           0.000451113   -0.000604177   -0.001819121
     11        6          -0.002787997   -0.008021430   -0.142261390
     12        8          -0.001019444   -0.001241496    0.014225712
     13        6          -0.003090978    0.142468648    0.006140184
     14        8          -0.001818526   -0.013764593   -0.000301083
     15        1          -0.008061540   -0.100072661    0.009954192
     16        6           0.141177632   -0.005065322    0.011363330
     17        8          -0.011589515   -0.002265497    0.000238651
     18        1          -0.098964368   -0.008413025    0.003766418
 -------------------------------------------------------------------
 Cartesian Forces:  Max     0.197682272 RMS     0.048134858
 Leave Link  716 at Mon Sep 15 19:24:05 2025, MaxMem=    33554432 cpu:         0.0
 (Enter /appl/g09.shchoi/G09Files/g09/l103.exe)

 GradGradGradGradGradGradGradGradGradGradGradGradGradGradGradGradGradGrad
 Berny optimization.
 Using GEDIIS/GDIIS optimizer.
 FormGI is forming the generalized inverse of G from B-inverse, IUseBI=4.
 Internal  Forces:  Max     0.156152813 RMS     0.035067918
 Search for a local minimum.
 Step number   3 out of a maximum of   89
 All quantities printed in internal units (Hartrees-Bohrs-Radians)
 RMS Force = .35068D-01 SwitMx=.10000D-02 MixMth= 1
 Mixed Optimization -- RFO/linear search
 Update second derivatives using D2CorX and points    2    3
 ITU=  0  1  0
 Use linear search instead of GDIIS.
 Linear search step of   1.200 exceeds DXMaxT=   0.505 scaled by   0.841
 Quartic linear search produced a step of  1.68179.
 Iteration  1 RMS(Cart)=  0.08465505 RMS(Int)=  0.06012914
 Iteration  2 RMS(Cart)=  0.07764935 RMS(Int)=  0.01565497
 Iteration  3 RMS(Cart)=  0.03176960 RMS(Int)=  0.00008453
 Iteration  4 RMS(Cart)=  0.00011298 RMS(Int)=  0.00006789
 Iteration  5 RMS(Cart)=  0.00000001 RMS(Int)=  0.00006789
 ITry= 1 IFail=0 DXMaxC= 6.25D-01 DCOld= 1.00D+10 DXMaxT= 5.05D-01 DXLimC= 3.00D+00 Rises=F
 Variable       Old X    -DE/DX   Delta X   Delta X   Delta X     New X
                                 (Linear)    (Quad)   (Total)
    R1        3.35267   0.15615   0.53152   0.00000   0.53152   3.88419
    R2        3.26788   0.12817   0.42925   0.00000   0.42925   3.69713
    R3        3.26041   0.12864   0.42230   0.00000   0.42230   3.68271
    R4        2.56204   0.10034   0.30677   0.00000   0.30677   2.86881
    R5        3.26615   0.12997   0.42792   0.00000   0.42792   3.69407
    R6        2.55892   0.09890   0.30410   0.00000   0.30410   2.86302
    R7        2.88242  -0.00143   0.00038   0.00000   0.00038   2.88280
    R8        2.05835  -0.00079   0.00010   0.00000   0.00010   2.05845
    R9        2.05549   0.00035  -0.00007   0.00000  -0.00007   2.05542
   R10        2.06131  -0.00071   0.00006   0.00000   0.00006   2.06136
   R11        3.01910  -0.00995   0.00155   0.00000   0.00155   3.02065
   R12        2.07253  -0.00062  -0.00010   0.00000  -0.00010   2.07244
   R13        2.06440  -0.00123  -0.00057   0.00000  -0.00057   2.06383
   R14        2.36694  -0.02714   0.00332   0.00000   0.00332   2.37025
   R15        2.16343  -0.01430  -0.00013   0.00000  -0.00013   2.16330
   R16        2.16949  -0.01384  -0.00014   0.00000  -0.00014   2.16935
   R17        2.15514  -0.01175  -0.00009   0.00000  -0.00009   2.15506
    A1        1.57902  -0.00023   0.00706   0.00000   0.00706   1.58608
    A2        1.54889  -0.01005  -0.02383   0.00000  -0.02387   1.52501
    A3        1.56479  -0.00509  -0.00668   0.00000  -0.00681   1.55798
    A4        1.56190  -0.00463  -0.01145   0.00000  -0.01145   1.55045
    A5        1.58628   0.01055   0.01775   0.00000   0.01770   1.60398
    A6        1.56892  -0.00038  -0.00110   0.00000  -0.00119   1.56773
    A7        1.58682   0.01068   0.01866   0.00000   0.01838   1.60519
    A8        1.56938  -0.00126  -0.00097   0.00000  -0.00112   1.56827
    A9        1.58269   0.00642   0.01353   0.00000   0.01355   1.59625
   A10        1.57137   0.00077   0.00038   0.00000   0.00041   1.57178
   A11        1.56634  -0.00074  -0.00449   0.00000  -0.00472   1.56162
   A12        1.56258  -0.00673  -0.00973   0.00000  -0.01003   1.55255
   A13        1.93263   0.00011   0.00031   0.00000   0.00031   1.93294
   A14        1.90124   0.00026  -0.00008   0.00000  -0.00008   1.90116
   A15        1.96715  -0.00105  -0.00001   0.00000  -0.00001   1.96714
   A16        1.88442   0.00003  -0.00010   0.00000  -0.00010   1.88432
   A17        1.90308   0.00017  -0.00015   0.00000  -0.00015   1.90292
   A18        1.87263   0.00054   0.00002   0.00000   0.00002   1.87264
   A19        2.09052   0.00072  -0.00045   0.00000  -0.00045   2.09007
   A20        1.91468  -0.00011   0.00038   0.00000   0.00038   1.91505
   A21        1.90989   0.00046   0.00022   0.00000   0.00022   1.91010
   A22        1.83087  -0.00067  -0.00019   0.00000  -0.00019   1.83068
   A23        1.84625  -0.00104   0.00013   0.00000   0.00013   1.84639
   A24        1.85748   0.00061  -0.00008   0.00000  -0.00008   1.85740
   A25        2.22388  -0.00518   0.00091   0.00000   0.00091   2.22479
   A26        2.20606  -0.01532  -0.00122   0.00000  -0.00122   2.20484
   A27        1.84887   0.02044   0.00031   0.00000   0.00031   1.84918
   A28        3.16530   0.01033   0.02481   0.00000   0.02476   3.19006
   A29        3.12791  -0.01028  -0.01677   0.00000  -0.01682   3.11110
   A30        3.12669  -0.00972  -0.01813   0.00000  -0.01827   3.10842
   A31        3.06978   0.00133  -0.00083   0.00000  -0.00083   3.06895
   A32        3.24314   0.00082   0.00003   0.00000   0.00003   3.24317
   A33        3.20462  -0.00060   0.00045   0.00000   0.00045   3.20506
   A34        3.15189   0.00587   0.01240   0.00000   0.01254   3.16443
   A35        3.13407  -0.00581  -0.00916   0.00000  -0.00914   3.12493
   A36        3.15394   0.00712   0.01373   0.00000   0.01358   3.16752
   A37        3.07799  -0.00011  -0.00001   0.00000  -0.00001   3.07798
   A38        3.11121   0.00236   0.00076   0.00000   0.00076   3.11197
   A39        3.24253  -0.00229  -0.00027   0.00000  -0.00027   3.24226
    D1        0.87140  -0.00243  -0.00464   0.00000  -0.00465   0.86675
    D2       -2.15553  -0.00293  -0.00469   0.00000  -0.00470  -2.16023
    D3       -2.26267   0.00338   0.00452   0.00000   0.00449  -2.25818
    D4        0.99359   0.00289   0.00447   0.00000   0.00444   0.99803
    D5        2.45404   0.00395   0.00882   0.00000   0.00877   2.46281
    D6       -0.57288   0.00346   0.00877   0.00000   0.00871  -0.56417
    D7       -0.69990  -0.00316  -0.00491   0.00000  -0.00482  -0.70472
    D8        2.55636  -0.00366  -0.00496   0.00000  -0.00487   2.55149
    D9        0.97709  -0.00017   0.00015   0.00000   0.00015   0.97725
   D10        3.09428  -0.00065  -0.00012   0.00000  -0.00012   3.09416
   D11       -1.15716   0.00030   0.00012   0.00000   0.00012  -1.15703
   D12        3.04691   0.00009   0.00017   0.00000   0.00017   3.04708
   D13       -1.11909  -0.00038  -0.00011   0.00000  -0.00011  -1.11920
   D14        0.91266   0.00056   0.00014   0.00000   0.00014   0.91280
   D15       -1.15999   0.00028   0.00013   0.00000   0.00013  -1.15986
   D16        0.95720  -0.00020  -0.00014   0.00000  -0.00014   0.95705
   D17        2.98895   0.00074   0.00010   0.00000   0.00010   2.98905
   D18        0.48242   0.00035  -0.00006   0.00000  -0.00006   0.48236
   D19       -2.75510  -0.00088  -0.00011   0.00000  -0.00011  -2.75521
   D20       -1.67579   0.00057  -0.00009   0.00000  -0.00009  -1.67588
   D21        1.36988  -0.00066  -0.00014   0.00000  -0.00014   1.36974
   D22        2.64757   0.00059   0.00003   0.00000   0.00003   2.64760
   D23       -0.58995  -0.00064  -0.00002   0.00000  -0.00002  -0.58997
         Item               Value     Threshold  Converged?
 Maximum Force            0.156153     0.000450     NO 
 RMS     Force            0.035068     0.000300     NO 
 Maximum Displacement     0.625170     0.001800     NO 
 RMS     Displacement     0.187850     0.001200     NO 
 Predicted change in Energy=-1.487953D-01
 GradGradGradGradGradGradGradGradGradGradGradGradGradGradGradGradGradGrad

 Leave Link  103 at Mon Sep 15 19:24:05 2025, MaxMem=    33554432 cpu:         0.0
 (Enter /appl/g09.shchoi/G09Files/g09/l202.exe)
                          Input orientation:                          
 ---------------------------------------------------------------------
 Center     Atomic      Atomic             Coordinates (Angstroms)
 Number     Number       Type             X           Y           Z
 ---------------------------------------------------------------------
      1         45           0        0.025250   -0.019200   -0.196927
      2          6           0       -2.458270    1.191186    2.243791
      3          6           0       -1.081884    0.810409    2.780219
      4          6           0       -0.070458   -0.013233    1.856257
      5          8           0        0.734156   -0.572472    2.639251
      6          1           0       -3.001606    0.307001    1.912809
      7          1           0       -3.031279    1.657820    3.041892
      8          1           0       -2.406730    1.905645    1.421115
      9          1           0       -0.531472    1.715777    3.063200
     10          1           0       -1.197537    0.221532    3.692688
     11          6           0        0.071640   -0.119668   -2.150232
     12          8           0        0.165313   -0.098526   -3.290965
     13          6           0        0.026150    1.929281   -0.232369
     14          8           0        0.132129    3.069555   -0.312236
     15          1           0       -0.002849   -1.535311   -0.124276
     16          6           0        1.976009   -0.067741   -0.080769
     17          8           0        3.112895    0.020659   -0.066476
     18          1           0       -1.489271   -0.020713   -0.236659
 ---------------------------------------------------------------------
                    Distance matrix (angstroms):
                    1          2          3          4          5
     1  Rh   0.000000
     2  C    3.686464   0.000000
     3  C    3.282895   1.525512   0.000000
     4  C    2.055423   2.702305   1.598459   0.000000
     5  O    2.975326   3.668578   2.286970   1.254285   0.000000
     6  H    3.703951   1.089287   2.165907   2.949132   3.906035
     7  H    4.758647   1.087682   2.141663   3.600640   4.394863
     8  H    3.498230   1.090827   2.191329   3.054440   4.182114
     9  H    3.734771   2.158513   1.096687   2.158406   2.649081
    10  H    4.084394   2.151507   1.092132   2.167464   2.339147
    11  C    1.956436   5.237005   5.148301   4.010421   4.856243
    12  O    3.098221   6.259398   6.264258   5.153325   5.976258
    13  C    1.948804   3.584480   3.399309   2.853954   3.873789
    14  O    3.092753   4.095328   4.017567   3.774518   4.726317
    15  H    1.518111   4.366992   3.886233   2.498760   3.017832
    16  C    1.954816   5.162490   4.278680   2.818345   3.032401
    17  O    3.090656   6.143724   5.130648   3.719111   3.651186
    18  H    1.515043   2.925797   3.155674   2.528514   3.676808
                    6          7          8          9         10
     6  H    0.000000
     7  H    1.760801   0.000000
     8  H    1.775191   1.754536   0.000000
     9  H    3.067509   2.500570   2.499817   0.000000
    10  H    2.535733   2.418485   3.075456   1.752902   0.000000
    11  C    5.112259   6.304421   4.795699   5.559898   5.988901
    12  O    6.105169   7.308080   5.730253   6.644743   7.122584
    13  C    4.049801   4.488023   2.941678   3.349224   4.451954
    14  O    4.733163   4.821859   3.287096   3.696844   5.091038
    15  H    4.066494   5.421447   4.472924   4.583559   4.368408
    16  C    5.375075   6.148293   5.035703   4.399197   4.939033
    17  O    6.433248   7.077650   6.019332   5.094086   5.722892
    18  H    2.648541   3.993014   2.701999   3.849915   3.947602
                   11         12         13         14         15
    11  C    0.000000
    12  O    1.144768   0.000000
    13  C    2.806859   3.672380   0.000000
    14  O    3.681443   4.348639   1.147969   0.000000
    15  H    2.472669   3.481458   3.466399   4.610676   0.000000
    16  C    2.812827   3.685773   2.795180   3.646381   2.464048
    17  O    3.689303   4.370328   3.632954   4.270963   3.483137
    18  H    2.471436   3.474548   2.469615   3.490617   2.125108
                   16         17         18
    16  C    0.000000
    17  O    1.140407   0.000000
    18  H    3.469103   4.605497   0.000000
 Stoichiometry    C6H7O4Rh
 Framework group  C1[X(C6H7O4Rh)]
 Deg. of freedom    48
 Full point group                 C1      NOp   1
 RotChk:  IX=0 Diff= 6.46D-02
 Largest Abelian subgroup         C1      NOp   1
 Largest concise Abelian subgroup C1      NOp   1
                         Standard orientation:                         
 ---------------------------------------------------------------------
 Center     Atomic      Atomic             Coordinates (Angstroms)
 Number     Number       Type             X           Y           Z
 ---------------------------------------------------------------------
      1         45           0       -0.360761   -0.052887   -0.419998
      2          6           0        3.042031   -1.467417   -0.319379
      3          6           0        2.889377    0.007613    0.038628
      4          6           0        1.520092    0.765317   -0.286970
      5          8           0        1.804385    1.986057   -0.333909
      6          1           0        2.850844   -1.629016   -1.379511
      7          1           0        4.063867   -1.776952   -0.111791
      8          1           0        2.383061   -2.112554    0.263253
      9          1           0        3.037534    0.144092    1.116656
     10          1           0        3.673380    0.584810   -0.456281
     11          6           0       -2.144546   -0.822609   -0.650831
     12          8           0       -3.203181   -1.256971   -0.684208
     13          6           0       -0.120502   -0.957892    1.289119
     14          8           0       -0.077320   -1.431525    2.333935
     15          1           0       -0.495771    0.649703   -1.758952
     16          6           0       -1.085601    1.532460    0.464642
     17          8           0       -1.539570    2.379790    1.078216
     18          1           0        0.241713   -1.243806   -1.137000
 ---------------------------------------------------------------------
 Rotational constants (GHZ):      1.0641365      0.6319457      0.5416678
 Leave Link  202 at Mon Sep 15 19:24:05 2025, MaxMem=    33554432 cpu:         0.0
 (Enter /appl/g09.shchoi/G09Files/g09/l301.exe)
 Standard basis: SDD (6D, 10F)
 Ernie: Thresh=  0.10000D-02 Tol=  0.10000D-05 Strict=F.
 There are   153 symmetry adapted cartesian basis functions of A   symmetry.
 There are   153 symmetry adapted basis functions of A   symmetry.
   153 basis functions,   333 primitive gaussians,   153 cartesian basis functions
    46 alpha electrons       46 beta electrons
       nuclear repulsion energy       697.1078625753 Hartrees.
 IExCor=    0 DFT=F Ex=HF Corr=None ExCW=0 ScaHFX=  1.000000
 ScaDFX=  1.000000  1.000000  1.000000  1.000000 ScalE2=  1.000000  1.000000
 IRadAn=      0 IRanWt=     -1 IRanGd=            0 ICorTp=0 IEmpDi=  4
 NAtoms=   18 NActive=   18 NUniq=   18 SFac= 1.00D+00 NAtFMM=   60 NAOKFM=F Big=F
 Integral buffers will be    131072 words long.
 Raffenetti 1 integral format.
 Two-electron integral symmetry is turned on.
 Leave Link  301 at Mon Sep 15 19:24:05 2025, MaxMem=    33554432 cpu:         0.0
 (Enter /appl/g09.shchoi/G09Files/g09/l402.exe)
 External calculation of energy and first derivatives.
 Running external command "/home/rxn_grp/programs/xtb-gaussian R"
         input file       "/home/rxn_grp/scratch/metallogen_test/Gau-3329403.EIn"
         output file      "/home/rxn_grp/scratch/metallogen_test/Gau-3329403.EOu"
         message file     "/home/rxn_grp/scratch/metallogen_test/Gau-3329403.EMs"
         fchk file        "/home/rxn_grp/scratch/metallogen_test/Gau-3329403.EFC"
         mat. el file     "/home/rxn_grp/scratch/metallogen_test/Gau-3329403.EUF"

 ExternalExternalExternalExternalExternalExternalExternalExternalExternalExternal
 Output from external command:
 "/home/rxn_grp/programs/xtb-gaussian R /home/rxn_grp/scratch/metallogen_test/Gau-3329403.EIn /home/rxn_grp/scratch/metallogen_test/Gau-3329403.EOu /home/rxn_grp/scratch/metallogen_test/Gau-3329403.EMs /home/rxn_grp/scratch/metallogen_test/Gau-3329403.EFC /home/rxn_grp/scratch/metallogen_test/Gau-3329403.EUF"
 normal termination of xtb
  
 ------- xtb command was ---------
[...]
    A3        1.42279   0.00001   0.00013   0.00003   0.00016   1.42296
    A4        1.51768  -0.00001  -0.00009  -0.00002  -0.00011   1.51757
    A5        1.75183   0.00001   0.00009   0.00003   0.00012   1.75195
    A6        1.48696  -0.00000   0.00000  -0.00001  -0.00001   1.48695
    A7        1.82016  -0.00001  -0.00003  -0.00006  -0.00010   1.82007
    A8        1.50745   0.00000  -0.00001   0.00004   0.00003   1.50748
    A9        1.71940   0.00000  -0.00003   0.00003  -0.00000   1.71940
   A10        1.52605   0.00000   0.00004   0.00002   0.00006   1.52611
   A11        1.53123  -0.00000  -0.00013  -0.00001  -0.00014   1.53109
   A12        1.48221  -0.00000   0.00011  -0.00003   0.00008   1.48229
   A13        1.93200  -0.00000  -0.00002   0.00001  -0.00001   1.93199
   A14        1.91302  -0.00000  -0.00000  -0.00001  -0.00001   1.91302
   A15        1.92581   0.00000   0.00001  -0.00000   0.00001   1.92582
   A16        1.89668   0.00000  -0.00000   0.00000  -0.00000   1.89668
   A17        1.89981   0.00000   0.00000   0.00001   0.00001   1.89982
   A18        1.89587  -0.00000   0.00001  -0.00001  -0.00000   1.89587
   A19        1.95456   0.00000  -0.00006  -0.00000  -0.00006   1.95449
   A20        1.90748  -0.00000   0.00001  -0.00001  -0.00001   1.90748
   A21        1.90999  -0.00000  -0.00003   0.00001  -0.00002   1.90998
   A22        1.86600  -0.00000  -0.00001   0.00001  -0.00001   1.86599
   A23        1.91832   0.00000   0.00008   0.00001   0.00008   1.91840
   A24        1.90660  -0.00000   0.00001  -0.00001   0.00001   1.90661
   A25        2.15708   0.00001   0.00002   0.00004   0.00006   2.15714
   A26        2.06016  -0.00001  -0.00000  -0.00002  -0.00002   2.06014
   A27        2.06568  -0.00001  -0.00001  -0.00001  -0.00003   2.06565
   A28        3.24101   0.00000   0.00007   0.00001   0.00007   3.24109
   A29        3.02905  -0.00001  -0.00009  -0.00002  -0.00010   3.02895
   A30        2.94048   0.00000   0.00003   0.00001   0.00005   2.94052
   A31        3.30595   0.00000   0.00010   0.00012   0.00022   3.30616
   A32        3.04920   0.00000  -0.00007   0.00006  -0.00001   3.04919
   A33        3.07000   0.00001   0.00015   0.00006   0.00021   3.07021
   A34        3.26396   0.00000   0.00011  -0.00003   0.00008   3.26404
   A35        3.01388   0.00000   0.00016  -0.00001   0.00015   3.01404
   A36        3.26410   0.00000   0.00001   0.00005   0.00006   3.26416
   A37        3.35542  -0.00000   0.00010  -0.00017  -0.00007   3.35535
   A38        3.12509  -0.00000  -0.00021   0.00001  -0.00020   3.12489
   A39        3.06534  -0.00001  -0.00007  -0.00010  -0.00017   3.06517
    D1        2.75884  -0.00000   0.00022  -0.00008   0.00014   2.75899
    D2       -0.40788   0.00000   0.00044   0.00000   0.00045  -0.40744
    D3       -0.25504  -0.00000   0.00006  -0.00007  -0.00001  -0.25505
    D4        2.86142   0.00000   0.00028   0.00001   0.00029   2.86171
    D5       -1.79043  -0.00000   0.00019  -0.00005   0.00013  -1.79030
    D6        1.32602   0.00001   0.00041   0.00003   0.00043   1.32646
    D7        1.22865  -0.00000   0.00018  -0.00011   0.00007   1.22873
    D8       -1.93807   0.00000   0.00040  -0.00002   0.00038  -1.93770
    D9        1.11511   0.00000   0.00001  -0.00004  -0.00003   1.11508
   D10       -3.10374   0.00000  -0.00004  -0.00004  -0.00008  -3.10382
   D11       -1.01658  -0.00000  -0.00003  -0.00005  -0.00008  -1.01666
   D12       -3.07613   0.00000  -0.00001  -0.00003  -0.00004  -3.07617
   D13       -1.01179   0.00000  -0.00005  -0.00004  -0.00009  -1.01188
   D14        1.07537  -0.00000  -0.00005  -0.00005  -0.00010   1.07527
   D15       -0.98904  -0.00000   0.00001  -0.00005  -0.00004  -0.98909
   D16        1.07529  -0.00000  -0.00004  -0.00005  -0.00009   1.07520
   D17       -3.12073  -0.00000  -0.00003  -0.00006  -0.00010  -3.12083
   D18       -1.26795   0.00000  -0.00018   0.00001  -0.00017  -1.26812
   D19        1.89885  -0.00000  -0.00040  -0.00008  -0.00048   1.89837
   D20        2.92641   0.00000  -0.00015   0.00002  -0.00012   2.92628
   D21       -0.18998  -0.00000  -0.00037  -0.00006  -0.00043  -0.19040
   D22        0.85897   0.00000  -0.00020   0.00002  -0.00017   0.85880
   D23       -2.25741  -0.00000  -0.00042  -0.00006  -0.00048  -2.25789
         Item               Value     Threshold  Converged?
 Maximum Force            0.000031     0.000450     YES
 RMS     Force            0.000006     0.000300     YES
 Maximum Displacement     0.000881     0.001800     YES
 RMS     Displacement     0.000222     0.001200     YES
 Predicted change in Energy=-1.039539D-08
 Optimization completed.
    -- Stationary point found.
                           ----------------------------
                           !   Optimized Parameters   !
                           ! (Angstroms and Degrees)  !
 --------------------------                            --------------------------
 ! Name  Definition              Value          Derivative Info.                !
 --------------------------------------------------------------------------------
 ! R1    R(1,4)                  2.096          -DE/DX =    0.0                 !
 ! R2    R(1,11)                 1.9406         -DE/DX =    0.0                 !
 ! R3    R(1,13)                 1.9085         -DE/DX =    0.0                 !
 ! R4    R(1,15)                 1.5294         -DE/DX =    0.0                 !
 ! R5    R(1,16)                 1.8962         -DE/DX =    0.0                 !
 ! R6    R(1,18)                 1.5352         -DE/DX =    0.0                 !
 ! R7    R(2,3)                  1.5283         -DE/DX =    0.0                 !
 ! R8    R(2,6)                  1.0875         -DE/DX =    0.0                 !
 ! R9    R(2,7)                  1.0869         -DE/DX =    0.0                 !
 ! R10   R(2,8)                  1.0874         -DE/DX =    0.0                 !
 ! R11   R(3,4)                  1.5256         -DE/DX =    0.0                 !
 ! R12   R(3,9)                  1.0941         -DE/DX =    0.0                 !
 ! R13   R(3,10)                 1.0919         -DE/DX =    0.0                 !
 ! R14   R(4,5)                  1.2103         -DE/DX =    0.0                 !
 ! R15   R(11,12)                1.1358         -DE/DX =    0.0                 !
 ! R16   R(13,14)                1.1315         -DE/DX =    0.0                 !
 ! R17   R(16,17)                1.1375         -DE/DX =    0.0                 !
 ! A1    A(4,1,13)              85.3238         -DE/DX =    0.0                 !
 ! A2    A(4,1,15)              88.2281         -DE/DX =    0.0                 !
 ! A3    A(4,1,16)              81.5201         -DE/DX =    0.0                 !
 ! A4    A(4,1,18)              86.9568         -DE/DX =    0.0                 !
 ! A5    A(11,1,13)            100.3725         -DE/DX =    0.0                 !
 ! A6    A(11,1,15)             85.1965         -DE/DX =    0.0                 !
 ! A7    A(11,1,16)            104.2876         -DE/DX =    0.0                 !
 ! A8    A(11,1,18)             86.3703         -DE/DX =    0.0                 !
 ! A9    A(13,1,16)             98.5144         -DE/DX =    0.0                 !
 ! A10   A(13,1,18)             87.4362         -DE/DX =    0.0                 !
 ! A11   A(15,1,16)             87.7333         -DE/DX =    0.0                 !
 ! A12   A(15,1,18)             84.9244         -DE/DX =    0.0                 !
 ! A13   A(3,2,6)              110.6957         -DE/DX =    0.0                 !
 ! A14   A(3,2,7)              109.6081         -DE/DX =    0.0                 !
 ! A15   A(3,2,8)              110.3408         -DE/DX =    0.0                 !
 ! A16   A(6,2,7)              108.6716         -DE/DX =    0.0                 !
 ! A17   A(6,2,8)              108.8514         -DE/DX =    0.0                 !
 ! A18   A(7,2,8)              108.6255         -DE/DX =    0.0                 !
 ! A19   A(2,3,4)              111.9878         -DE/DX =    0.0                 !
 ! A20   A(2,3,9)              109.2908         -DE/DX =    0.0                 !
 ! A21   A(2,3,10)             109.4345         -DE/DX =    0.0                 !
 ! A22   A(4,3,9)              106.9139         -DE/DX =    0.0                 !
 ! A23   A(4,3,10)             109.9115         -DE/DX =    0.0                 !
 ! A24   A(9,3,10)             109.24           -DE/DX =    0.0                 !
 ! A25   A(1,4,3)              123.5917         -DE/DX =    0.0                 !
 ! A26   A(1,4,5)              118.0384         -DE/DX =    0.0                 !
 ! A27   A(3,4,5)              118.3548         -DE/DX =    0.0                 !
 ! A28   L(4,1,11,13,-1)       185.6963         -DE/DX =    0.0                 !
 ! A29   L(13,1,15,4,-1)       173.5519         -DE/DX =    0.0                 !
 ! A30   L(16,1,18,4,-1)       168.4768         -DE/DX =    0.0                 !
 ! A31   L(1,11,12,14,-1)      189.4168         -DE/DX =    0.0                 !
 ! A32   L(1,13,14,2,-1)       174.7061         -DE/DX =    0.0                 !
 ! A33   L(1,16,17,5,-1)       175.8982         -DE/DX =    0.0                 !
 ! A34   L(4,1,11,13,-2)       187.0109         -DE/DX =    0.0                 !
 ! A35   L(13,1,15,4,-2)       172.6828         -DE/DX =    0.0                 !
 ! A36   L(16,1,18,4,-2)       187.019          -DE/DX =    0.0                 !
 ! A37   L(1,11,12,14,-2)      192.2513         -DE/DX =    0.0                 !
 ! A38   L(1,13,14,2,-2)       179.0546         -DE/DX =    0.0                 !
 ! A39   L(1,16,17,5,-2)       175.6313         -DE/DX =    0.0                 !
 ! D1    D(13,1,4,3)           158.0701         -DE/DX =    0.0                 !
 ! D2    D(13,1,4,5)           -23.3701         -DE/DX =    0.0                 !
 ! D3    D(15,1,4,3)           -14.6127         -DE/DX =    0.0                 !
 ! D4    D(15,1,4,5)           163.9471         -DE/DX =    0.0                 !
 ! D5    D(16,1,4,3)          -102.5843         -DE/DX =    0.0                 !
 ! D6    D(16,1,4,5)            75.9755         -DE/DX =    0.0                 !
 ! D7    D(18,1,4,3)            70.3967         -DE/DX =    0.0                 !
 ! D8    D(18,1,4,5)          -111.0435         -DE/DX =    0.0                 !
 ! D9    D(6,2,3,4)             63.8909         -DE/DX =    0.0                 !
 ! D10   D(6,2,3,9)           -177.8312         -DE/DX =    0.0                 !
 ! D11   D(6,2,3,10)           -58.2458         -DE/DX =    0.0                 !
 ! D12   D(7,2,3,4)           -176.2493         -DE/DX =    0.0                 !
 ! D13   D(7,2,3,9)            -57.9714         -DE/DX =    0.0                 !
 ! D14   D(7,2,3,10)            61.6139         -DE/DX =    0.0                 !
 ! D15   D(8,2,3,4)            -56.668          -DE/DX =    0.0                 !
 ! D16   D(8,2,3,9)             61.6099         -DE/DX =    0.0                 !
 ! D17   D(8,2,3,10)          -178.8048         -DE/DX =    0.0                 !
 ! D18   D(2,3,4,1)            -72.6483         -DE/DX =    0.0                 !
 ! D19   D(2,3,4,5)            108.7961         -DE/DX =    0.0                 !
 ! D20   D(9,3,4,1)            167.6707         -DE/DX =    0.0                 !
 ! D21   D(9,3,4,5)            -10.8848         -DE/DX =    0.0                 !
 ! D22   D(10,3,4,1)            49.2155         -DE/DX =    0.0                 !
 ! D23   D(10,3,4,5)          -129.3401         -DE/DX =    0.0                 !
 --------------------------------------------------------------------------------
 GradGradGradGradGradGradGradGradGradGradGradGradGradGradGradGradGradGrad

 Largest change from initial coordinates is atom   17       2.200 Angstoms.
 Leave Link  103 at Mon Sep 15 19:24:17 2025, MaxMem=    33554432 cpu:         0.0
 (Enter /appl/g09.shchoi/G09Files/g09/l202.exe)
                          Input orientation:                          
 ---------------------------------------------------------------------
 Center     Atomic      Atomic             Coordinates (Angstroms)
 Number     Number       Type             X           Y           Z
 ---------------------------------------------------------------------
      1         45           0        0.113975    0.378828   -0.309286
      2          6           0       -2.489073    0.802052    2.380855
      3          6           0       -1.034439    0.441400    2.680084
      4          6           0       -0.073700    1.054530    1.665935
      5          8           0        0.638299    1.964610    2.025965
      6          1           0       -2.799906    0.384647    1.426017
      7          1           0       -3.131837    0.402552    3.161047
      8          1           0       -2.611841    1.881978    2.348869
      9          1           0       -0.757956    0.838935    3.661179
     10          1           0       -0.923639   -0.644795    2.687746
     11          6           0       -0.002561   -0.332773   -2.110931
     12          8           0       -0.281616   -0.855666   -3.079826
     13          6           0        0.823313    2.113436   -0.670177
     14          8           0        1.189246    3.176166   -0.800583
     15          1           0       -0.646002   -0.883501    0.100514
     16          6           0        1.676666   -0.419641    0.409059
     17          8           0        2.562941   -0.893244    0.942151
     18          1           0       -1.279686    0.972486   -0.558302
 ---------------------------------------------------------------------
                    Distance matrix (angstroms):
                    1          2          3          4          5
     1  Rh   0.000000
     2  C    3.767205   0.000000
     3  C    3.202983   1.528256   0.000000
     4  C    2.096018   2.531577   1.525596   0.000000
     5  O    2.871065   3.355286   2.355014   1.210293   0.000000
     6  H    3.391462   1.087456   2.166282   2.817536   3.831120
     7  H    4.751744   1.086943   2.152188   3.465925   4.235843
     8  H    4.093326   1.087353   2.161750   2.755582   3.267186
     9  H    4.091034   2.153452   1.094086   2.120304   2.427056
    10  H    3.332663   2.153633   1.091859   2.157359   3.112330
    11  C    1.940588   5.258014   4.961647   4.024225   4.775204
    12  O    3.058817   6.118817   5.951948   5.119993   5.905023
    13  C    1.908473   4.690461   4.179855   2.717229   2.706577
    14  O    3.036887   5.411838   4.953661   3.489998   3.124225
    15  H    1.529371   3.382004   2.925821   2.556176   3.669949
    16  C    1.896200   4.768007   3.639922   2.610880   3.062228
    17  O    3.030132   5.519669   4.212224   3.357016   3.611955
    18  H    1.535164   3.182815   3.290796   2.531475   3.367701
                    6          7          8          9         10
     6  H    0.000000
     7  H    1.766587   0.000000
     8  H    1.768906   1.765993   0.000000
     9  H    3.061354   2.464928   2.499397   0.000000
    10  H    2.484369   2.489396   3.057687   1.782268   0.000000
    11  C    4.566161   6.174692   5.621680   5.938079   4.896227
    12  O    5.308745   6.975340   6.511173   6.967046   5.807025
    13  C    4.528847   5.766161   4.579137   4.783870   4.683516
    14  O    5.353846   6.485307   5.103159   5.400145   5.588601
    15  H    2.829215   4.147309   4.070319   3.956976   2.613012
    16  C    4.660556   5.600995   5.239428   4.252962   3.464779
    17  O    5.534190   6.247646   6.038136   4.628382   3.907053
    18  H    2.567907   4.193906   3.324674   4.253711   3.644063
                   11         12         13         14         15
    11  C    0.000000
    12  O    1.135802   0.000000
    13  C    2.956650   3.980307   0.000000
    14  O    3.930658   4.859430   1.131507   0.000000
    15  H    2.368081   3.201267   3.425563   4.545438   0.000000
    16  C    3.029472   4.024587   2.882610   3.825002   2.388546
    17  O    4.027064   4.926380   3.829625   4.635111   3.317494
    18  H    2.396957   3.270530   2.395180   3.318212   2.068884
                   16         17         18
    16  C    0.000000
    17  O    1.137529   0.000000
    18  H    3.407905   4.527482   0.000000
 Stoichiometry    C6H7O4Rh
 Framework group  C1[X(C6H7O4Rh)]
 Deg. of freedom    48
 Full point group                 C1      NOp   1
 RotChk:  IX=2 Diff= 2.39D-15
 Largest Abelian subgroup         C1      NOp   1
 Largest concise Abelian subgroup C1      NOp   1
                         Standard orientation:                         
 ---------------------------------------------------------------------
 Center     Atomic      Atomic             Coordinates (Angstroms)
 Number     Number       Type             X           Y           Z
 ---------------------------------------------------------------------
      1         45           0       -0.450980   -0.214890    0.018058
      2          6           0        2.943721   -1.742993    0.594890
      3          6           0        2.684105   -0.666191   -0.458041
      4          6           0        1.581019    0.296915   -0.030171
      5          8           0        1.890559    1.426578    0.274553
      6          1           0        2.067467   -2.374044    0.723388
      7          1           0        3.778000   -2.365503    0.281990
      8          1           0        3.190611   -1.285868    1.550096
      9          1           0        3.591014   -0.070099   -0.596661
     10          1           0        2.417126   -1.140498   -1.404567
     11          6           0       -2.235105   -0.972424    0.112515
     12          8           0       -3.157554   -1.634308    0.144831
     13          6           0       -0.624785    1.228815    1.254090
     14          8           0       -0.625956    2.070332    2.010500
     15          1           0       -0.112072   -1.446086   -0.823532
     16          6           0       -0.453877    0.790231   -1.589829
     17          8           0       -0.344013    1.369493   -2.562638
     18          1           0       -0.112795   -1.110725    1.217990
 ---------------------------------------------------------------------
 Rotational constants (GHZ):      0.9925882      0.6195059      0.5907432
 Leave Link  202 at Mon Sep 15 19:24:17 2025, MaxMem=    33554432 cpu:         0.0
 (Enter /appl/g09.shchoi/G09Files/g09/l601.exe)
 Leave Link  601 at Mon Sep 15 19:24:17 2025, MaxMem=    33554432 cpu:         0.0
 (Enter /appl/g09.shchoi/G09Files/g09/l9999.exe)
 1\1\GINC-MASTER\FOpt\RExternal='/home/rxn_grp/programs/xtb-gaussian'\Z
 DO\C6H7O4Rh1\RXN_GRP\15-Sep-2025\0\\#p external='/home/rxn_grp/program
 s/xtb-gaussian' /sdd opt(nomicro)\\R\\0,1\Rh,0.1139747061,0.3788279917
 ,-0.3092860855\C,-2.4890728697,0.8020519697,2.380854799\C,-1.034439098
 4,0.4414004169,2.6800835135\C,-0.0736997361,1.054529565,1.665935197\O,
 0.6382994529,1.9646095713,2.0259645837\H,-2.7999063086,0.3846466413,1.
 4260166958\H,-3.1318369832,0.4025522643,3.1610471015\H,-2.6118408109,1
 .8819783179,2.3488693724\H,-0.7579564652,0.8389349602,3.6611792642\H,-
 0.9236385176,-0.6447951336,2.687745686\C,-0.0025613865,-0.332772561,-2
 .1109312804\O,-0.281616417,-0.8556660124,-3.0798259387\C,0.823313062,2
 .1134358839,-0.6701769708\O,1.1892460737,3.1761663191,-0.8005826376\H,
 -0.6460022887,-0.8835009619,0.1005139394\C,1.6766659223,-0.4196407499,
 0.4090587729\O,2.5629413723,-0.8932435509,0.942151203\H,-1.2796857074,
 0.9724860685,-0.5583022154\\Version=ES64L-G09RevD.01\HF=-36.6849498\RM
 SD=0.000e+00\RMSF=1.046e-05\Dipole=0.1083043,-0.4552831,-0.5135827\PG=
 C01 [X(C6H7O4Rh1)]\\@


 ALL THINGS ARE POSSIBLE EXCEPT SKIING THROUGH A REVOLVING DOOR.
 Job cpu time:       0 days  0 hours  0 minutes  2.2 seconds.
 File lengths (MBytes):  RWF=      5 Int=      0 D2E=      0 Chk=      1 Scr=      1
 Normal termination of Gaussian 09 at Mon Sep 15 19:24:17 2025.
