 Entering Gaussian System, Link 0=g09
 Input=final_relax_1.com
 Output=final_relax_1.log
 Initial command:
 /appl/g09.shchoi/G09Files/g09/l1.exe "/home/rxn_grp/scratch/metallogen_test/Gau-3470212.inp" -scrdir="/home/rxn_grp/scratch/metallogen_test/"
 Entering Link 1 = /appl/g09.shchoi/G09Files/g09/l1.exe PID=   3470214.
  
 Copyright (c) 1988,1990,1992,1993,1995,1998,2003,2009,2013,
            Gaussian, Inc.  All Rights Reserved.
  
 This is part of the Gaussian(R) 09 program.  It is based on
 the Gaussian(R) 03 system (copyright 2003, Gaussian, Inc.),
 the Gaussian(R) 98 system (copyright 1998, Gaussian, Inc.),
 the Gaussian(R) 94 system (copyright 1995, Gaussian, Inc.),
 the Gaussian 92(TM) system (copyright 1992, Gaussian, Inc.),
 the Gaussian 90(TM) system (copyright 1990, Gaussian, Inc.),
 the Gaussian 88(TM) system (copyright 1988, Gaussian, Inc.),
 the Gaussian 86(TM) system (copyright 1986, Carnegie Mellon
 University), and the Gaussian 82(TM) system (copyright 1983,
 Carnegie Mellon University). Gaussian is a federally registered
 trademark of Gaussian, Inc.
  
 This software contains proprietary and confidential information,
 including trade secrets, belonging to Gaussian, Inc.
  
 This software is provided under written license and may be
 used, copied, transmitted, or stored only in accord with that
 written license.
  
 The following legend is applicable only to US Government
 contracts under FAR:
  
                    RESTRICTED RIGHTS LEGEND
  
 Use, reproduction and disclosure by the US Government is
 subject to restrictions as set forth in subparagraphs (a)
 and (c) of the Commercial Computer Software - Restricted
 Rights clause in FAR 52.227-19.
  
 Gaussian, Inc.
 340 Quinnipiac St., Bldg. 40, Wallingford CT 06492
  
  
 ---------------------------------------------------------------
 Warning -- This program may not be used in any manner that
 competes with the business of Gaussian, Inc. or will provide
 assistance to any competitor of Gaussian, Inc.  The licensee
 of this program is prohibited from giving any competitor of
 Gaussian, Inc. access to this program.  By using this program,
 the user acknowledges that Gaussian, Inc. is engaged in the
 business of creating and licensing software in the field of
 computational chemistry and represents and warrants to the
 licensee that it is not a competitor of Gaussian, Inc. and that
 it will not use this program in any manner prohibited above.
 ---------------------------------------------------------------
  

 Cite this work as:
 Gaussian 09, Revision D.01,
 M. J. Frisch, G. W. Trucks, H. B. Schlegel, G. E. Scuseria, 
 M. A. Robb, J. R. Cheeseman, G. Scalmani, V. Barone, B. Mennucci, 
 G. A. Petersson, H. Nakatsuji, M. Caricato, X. Li, H. P. Hratchian, 
 A. F. Izmaylov, J. Bloino, G. Zheng, J. L. Sonnenberg, M. Hada, 
 M. Ehara, K. Toyota, R. Fukuda, J. Hasegawa, M. Ishida, T. Nakajima, 
 Y. Honda, O. Kitao, H. Nakai, T. Vreven, J. A. Montgomery, Jr., 
 J. E. Peralta, F. Ogliaro, M. Bearpark, J. J. Heyd, E. Brothers, 
 K. N. Kudin, V. N. Staroverov, T. Keith, R. Kobayashi, J. Normand, 
 K. Raghavachari, A. Rendell, J. C. Burant, S. S. Iyengar, J. Tomasi, 
 M. Cossi, N. Rega, J. M. Millam, M. Klene, J. E. Knox, J. B. Cross, 
 V. Bakken, C. Adamo, J. Jaramillo, R. Gomperts, R. E. Stratmann, 
 O. Yazyev, A. J. Austin, R. Cammi, C. Pomelli, J. W. Ochterski, 
 R. L. Martin, K. Morokuma, V. G. Zakrzewski, G. A. Voth, 
 P. Salvador, J. J. Dannenberg, S. Dapprich, A. D. Daniels, 
 O. Farkas, J. B. Foresman, J. V. Ortiz, J. Cioslowski, 
 and D. J. Fox, Gaussian, Inc., Wallingford CT, 2013.
 
 ******************************************
 Gaussian 09:  ES64L-G09RevD.01 24-Apr-2013
                15-Sep-2025 
 ******************************************
 -------------------------------------------------------------------
 #p external='/home/rxn_grp/programs/xtb-gaussian' /sdd opt(nomicro)
 -------------------------------------------------------------------
 1/14=-1,18=20,19=15,26=1,38=1/1,3;
 2/9=110,12=2,17=6,18=5,40=1/2;
 3/5=17,6=7,11=9,16=1,25=1,30=1,41=9900000,43=2,71=1/1;
 4/20=17,22=1,24=3,113=1,114=1/2;
 6/7=2,8=2,9=2,10=2/1;
 7/44=-1/16;
 1/14=-1,18=20,19=15,26=1/3(2);
 2/9=110/2;
 99//99;
 2/9=110/2;
 3/5=17,6=7,11=9,16=1,25=1,30=1,41=9900000,43=2,71=1/1;
 4/16=2,20=17,22=1,24=3,113=1,114=1/2;
 7/44=-1/16;
 1/14=-1,18=20,19=15,26=1/3(-4);
 2/9=110/2;
 6/7=2,8=2,9=2,10=2/1;
 99//99;
 Leave Link    1 at Mon Sep 15 20:25:45 2025, MaxMem=           0 cpu:         0.0
 (Enter /appl/g09.shchoi/G09Files/g09/l101.exe)
 -
 R
 -
 Symbolic Z-matrix:
 Charge =  0 Multiplicity = 1
 Zr                    0.        0.        0. 
 Cl                    0.        0.       -1.939 
 Cl                    1.939     0.        0. 
 N                     0.229    -0.0117    1.70667 
 C                     1.23872   0.73228   2.29369 
 C                     1.53637   1.93301   1.4512 
 C                     0.3111    2.1051    0.62184 
 C                     0.26528   2.08146  -0.71121 
 C                    -1.11332   1.94598  -1.12918 
 C                    -1.92268   1.80554  -0.06872 
 C                    -1.08285   1.98861   1.07332 
 C                     1.62095   0.71124   3.6361 
 C                     0.81083   0.03135   4.53761 
 C                    -0.36916  -0.53952   4.08131 
 C                    -0.62024  -0.5138    2.71252 
 C                    -1.86706  -1.09362   2.11578 
 C                    -1.40048  -1.61738   0.82387 
 C                    -0.15179  -2.3681    0.83174 
 C                     0.18152  -2.52666  -0.44434 
 C                    -0.83892  -1.91701  -1.27502 
 C                    -1.77267  -1.31416  -0.52175 
 H                     1.70029   2.8253    2.06505 
 H                     2.43029   1.7495    0.84664 
 H                     1.10236   2.03813  -1.38572 
 H                    -1.42013   1.90733  -2.16346 
 H                    -2.99344   1.68512  -0.06466 
 H                    -1.42557   2.20777   2.07321 
 H                     2.4443    1.32026   3.99316 
 H                     1.04802   0.02745   5.59738 
 H                    -1.06765  -1.00152   4.76998 
 H                    -2.64003  -0.32797   2.00563 
 H                    -2.26601  -1.90262   2.73746 
 H                     0.40287  -2.7247    1.6848 
 H                     1.05482  -3.03493  -0.82233 
 H                    -0.81251  -1.9337   -2.35378 
 H                    -2.64512  -0.78579  -0.85551 
 
 NAtoms=     36 NQM=       36 NQMF=       0 NMMI=      0 NMMIF=      0
                NMic=       0 NMicF=      0.
                    Isotopes and Nuclear Properties:
 (Nuclear quadrupole moments (NQMom) in fm**2, nuclear magnetic moments (NMagM)
  in nuclear magnetons)

  Atom         1           2           3           4           5           6           7           8           9          10
 IAtWgt=          90          35          35          14          12          12          12          12          12          12
 AtmWgt=  89.9043000  34.9688527  34.9688527  14.0030740  12.0000000  12.0000000  12.0000000  12.0000000  12.0000000  12.0000000
 NucSpn=           0           3           3           2           0           0           0           0           0           0
 AtZEff=   0.0000000   0.0000000   0.0000000   0.0000000   0.0000000   0.0000000   0.0000000   0.0000000   0.0000000   0.0000000
 NQMom=    0.0000000  -8.1650000  -8.1650000   2.0440000   0.0000000   0.0000000   0.0000000   0.0000000   0.0000000   0.0000000
 NMagM=    0.0000000   0.8218740   0.8218740   0.4037610   0.0000000   0.0000000   0.0000000   0.0000000   0.0000000   0.0000000
 AtZNuc=  40.0000000  17.0000000  17.0000000   7.0000000   6.0000000   6.0000000   6.0000000   6.0000000   6.0000000   6.0000000

  Atom        11          12          13          14          15          16          17          18          19          20
 IAtWgt=          12          12          12          12          12          12          12          12          12          12
 AtmWgt=  12.0000000  12.0000000  12.0000000  12.0000000  12.0000000  12.0000000  12.0000000  12.0000000  12.0000000  12.0000000
 NucSpn=           0           0           0           0           0           0           0           0           0           0
 AtZEff=   0.0000000   0.0000000   0.0000000   0.0000000   0.0000000   0.0000000   0.0000000   0.0000000   0.0000000   0.0000000
 NQMom=    0.0000000   0.0000000   0.0000000   0.0000000   0.0000000   0.0000000   0.0000000   0.0000000   0.0000000   0.0000000
 NMagM=    0.0000000   0.0000000   0.0000000   0.0000000   0.0000000   0.0000000   0.0000000   0.0000000   0.0000000   0.0000000
 AtZNuc=   6.0000000   6.0000000   6.0000000   6.0000000   6.0000000   6.0000000   6.0000000   6.0000000   6.0000000   6.0000000

  Atom        21          22          23          24          25          26          27          28          29          30
 IAtWgt=          12           1           1           1           1           1           1           1           1           1
 AtmWgt=  12.0000000   1.0078250   1.0078250   1.0078250   1.0078250   1.0078250   1.0078250   1.0078250   1.0078250   1.0078250
 NucSpn=           0           1           1           1           1           1           1           1           1           1
 AtZEff=   0.0000000   0.0000000   0.0000000   0.0000000   0.0000000   0.0000000   0.0000000   0.0000000   0.0000000   0.0000000
 NQMom=    0.0000000   0.0000000   0.0000000   0.0000000   0.0000000   0.0000000   0.0000000   0.0000000   0.0000000   0.0000000
 NMagM=    0.0000000   2.7928460   2.7928460   2.7928460   2.7928460   2.7928460   2.7928460   2.7928460   2.7928460   2.7928460
 AtZNuc=   6.0000000   1.0000000   1.0000000   1.0000000   1.0000000   1.0000000   1.0000000   1.0000000   1.0000000   1.0000000

  Atom        31          32          33          34          35          36
 IAtWgt=           1           1           1           1           1           1
 AtmWgt=   1.0078250   1.0078250   1.0078250   1.0078250   1.0078250   1.0078250
 NucSpn=           1           1           1           1           1           1
 AtZEff=   0.0000000   0.0000000   0.0000000   0.0000000   0.0000000   0.0000000
 NQMom=    0.0000000   0.0000000   0.0000000   0.0000000   0.0000000   0.0000000
 NMagM=    2.7928460   2.7928460   2.7928460   2.7928460   2.7928460   2.7928460
 AtZNuc=   1.0000000   1.0000000   1.0000000   1.0000000   1.0000000   1.0000000
 Leave Link  101 at Mon Sep 15 20:25:45 2025, MaxMem=    33554432 cpu:         0.0
 (Enter /appl/g09.shchoi/G09Files/g09/l103.exe)

 GradGradGradGradGradGradGradGradGradGradGradGradGradGradGradGradGradGrad
 Berny optimization.
 Initialization pass.
                           ----------------------------
                           !    Initial Parameters    !
                           ! (Angstroms and Degrees)  !
 --------------------------                            --------------------------
 ! Name  Definition              Value          Derivative Info.                !
 --------------------------------------------------------------------------------
 ! R1    R(1,2)                  1.939          estimate D2E/DX2                !
 ! R2    R(1,3)                  1.939          estimate D2E/DX2                !
 ! R3    R(1,4)                  1.722          estimate D2E/DX2                !
 ! R4    R(1,7)                  2.217          estimate D2E/DX2                !
 ! R5    R(1,8)                  2.2155         estimate D2E/DX2                !
 ! R6    R(1,9)                  2.5103         estimate D2E/DX2                !
 ! R7    R(1,10)                 2.6384         estimate D2E/DX2                !
 ! R8    R(1,11)                 2.5058         estimate D2E/DX2                !
 ! R9    R(1,17)                 2.2926         estimate D2E/DX2                !
 ! R10   R(1,18)                 2.5145         estimate D2E/DX2                !
 ! R11   R(1,19)                 2.5718         estimate D2E/DX2                !
 ! R12   R(1,20)                 2.4504         estimate D2E/DX2                !
 ! R13   R(1,21)                 2.2675         estimate D2E/DX2                !
 ! R14   R(4,5)                  1.3848         estimate D2E/DX2                !
 ! R15   R(4,15)                 1.4089         estimate D2E/DX2                !
 ! R16   R(5,6)                  1.4967         estimate D2E/DX2                !
 ! R17   R(5,12)                 1.3959         estimate D2E/DX2                !
 ! R18   R(6,7)                  1.4895         estimate D2E/DX2                !
 ! R19   R(6,22)                 1.0954         estimate D2E/DX2                !
 ! R20   R(6,23)                 1.0947         estimate D2E/DX2                !
 ! R21   R(7,8)                  1.334          estimate D2E/DX2                !
 ! R22   R(7,11)                 1.4699         estimate D2E/DX2                !
 ! R23   R(8,9)                  1.4469         estimate D2E/DX2                !
 ! R24   R(8,24)                 1.0759         estimate D2E/DX2                !
 ! R25   R(9,10)                 1.3414         estimate D2E/DX2                !
 ! R26   R(9,25)                 1.0795         estimate D2E/DX2                !
 ! R27   R(10,11)                1.4294         estimate D2E/DX2                !
 ! R28   R(10,26)                1.0775         estimate D2E/DX2                !
 ! R29   R(11,27)                1.0795         estimate D2E/DX2                !
 ! R30   R(12,13)                1.3897         estimate D2E/DX2                !
 ! R31   R(12,28)                1.0846         estimate D2E/DX2                !
 ! R32   R(13,14)                1.388          estimate D2E/DX2                !
 ! R33   R(13,29)                1.086          estimate D2E/DX2                !
 ! R34   R(14,15)                1.3919         estimate D2E/DX2                !
 ! R35   R(14,30)                1.0843         estimate D2E/DX2                !
 ! R36   R(15,16)                1.4989         estimate D2E/DX2                !
 ! R37   R(16,17)                1.47           estimate D2E/DX2                !
 ! R38   R(16,31)                1.0935         estimate D2E/DX2                !
 ! R39   R(16,32)                1.0955         estimate D2E/DX2                !
 ! R40   R(17,18)                1.457          estimate D2E/DX2                !
 ! R41   R(17,21)                1.4287         estimate D2E/DX2                !
 ! R42   R(18,19)                1.3284         estimate D2E/DX2                !
 ! R43   R(18,33)                1.0782         estimate D2E/DX2                !
 ! R44   R(19,20)                1.4502         estimate D2E/DX2                !
 ! R45   R(19,34)                1.0788         estimate D2E/DX2                !
 ! R46   R(20,21)                1.3427         estimate D2E/DX2                !
 ! R47   R(20,35)                1.0792         estimate D2E/DX2                !
 ! R48   R(21,36)                1.0732         estimate D2E/DX2                !
 ! A1    A(2,1,3)               90.0            estimate D2E/DX2                !
 ! A2    A(2,1,7)              106.2895         estimate D2E/DX2                !
 ! A3    A(2,1,8)               71.2761         estimate D2E/DX2                !
 ! A4    A(2,1,9)               63.2673         estimate D2E/DX2                !
 ! A5    A(2,1,10)              88.5074         estimate D2E/DX2                !
 ! A6    A(2,1,11)             115.3616         estimate D2E/DX2                !
 ! A7    A(2,1,17)             111.061          estimate D2E/DX2                !
 ! A8    A(2,1,18)             109.3159         estimate D2E/DX2                !
 ! A9    A(2,1,19)              80.0509         estimate D2E/DX2                !
 ! A10   A(2,1,20)              58.6453         estimate D2E/DX2                !
 ! A11   A(2,1,21)              76.697          estimate D2E/DX2                !
 ! A12   A(3,1,4)               82.358          estimate D2E/DX2                !
 ! A13   A(3,1,7)               81.9332         estimate D2E/DX2                !
 ! A14   A(3,1,8)               83.1232         estimate D2E/DX2                !
 ! A15   A(3,1,9)              116.3281         estimate D2E/DX2                !
 ! A16   A(3,1,10)             136.7789         estimate D2E/DX2                !
 ! A17   A(3,1,11)             115.603          estimate D2E/DX2                !
 ! A18   A(3,1,17)             127.6524         estimate D2E/DX2                !
 ! A19   A(3,1,18)              93.4608         estimate D2E/DX2                !
 ! A20   A(3,1,19)              85.9528         estimate D2E/DX2                !
 ! A21   A(3,1,20)             110.0209         estimate D2E/DX2                !
 ! A22   A(3,1,21)             141.4229         estimate D2E/DX2                !
 ! A23   A(4,1,7)               73.1299         estimate D2E/DX2                !
 ! A24   A(4,1,8)              107.9755         estimate D2E/DX2                !
 ! A25   A(4,1,9)              120.6684         estimate D2E/DX2                !
 ! A26   A(4,1,10)              97.3178         estimate D2E/DX2                !
 ! A27   A(4,1,11)              68.798          estimate D2E/DX2                !
 ! A28   A(4,1,17)              73.7566         estimate D2E/DX2                !
 ! A29   A(4,1,18)              70.9616         estimate D2E/DX2                !
 ! A30   A(4,1,19)              98.9269         estimate D2E/DX2                !
 ! A31   A(4,1,20)             123.7738         estimate D2E/DX2                !
 ! A32   A(4,1,21)             109.152          estimate D2E/DX2                !
 ! A33   A(7,1,9)               56.7915         estimate D2E/DX2                !
 ! A34   A(7,1,10)              57.301          estimate D2E/DX2                !
 ! A35   A(7,1,17)             130.9049         estimate D2E/DX2                !
 ! A36   A(7,1,18)             144.0909         estimate D2E/DX2                !
 ! A37   A(7,1,20)             159.5288         estimate D2E/DX2                !
 ! A38   A(7,1,21)             136.4325         estimate D2E/DX2                !
 ! A39   A(8,1,10)              55.6664         estimate D2E/DX2                !
 ! A40   A(8,1,11)              56.1979         estimate D2E/DX2                !
 ! A41   A(8,1,17)             148.3511         estimate D2E/DX2                !
 ! A42   A(8,1,19)             149.211          estimate D2E/DX2                !
 ! A43   A(8,1,20)             127.513          estimate D2E/DX2                !
 ! A44   A(8,1,21)             124.3485         estimate D2E/DX2                !
 ! A45   A(9,1,11)              52.1072         estimate D2E/DX2                !
 ! A46   A(9,1,17)             115.952          estimate D2E/DX2                !
 ! A47   A(9,1,18)             148.4403         estimate D2E/DX2                !
 ! A48   A(9,1,19)             135.6575         estimate D2E/DX2                !
 ! A49   A(9,1,20)             102.7423         estimate D2E/DX2                !
 ! A50   A(9,1,21)              89.9458         estimate D2E/DX2                !
 ! A51   A(10,1,17)             92.6928         estimate D2E/DX2                !
 ! A52   A(10,1,18)            127.5246         estimate D2E/DX2                !
 ! A53   A(10,1,19)            135.9908         estimate D2E/DX2                !
 ! A54   A(10,1,20)            105.8026         estimate D2E/DX2                !
 ! A55   A(10,1,21)             79.684          estimate D2E/DX2                !
 ! A56   A(11,1,17)             98.1613         estimate D2E/DX2                !
 ! A57   A(11,1,18)            125.424          estimate D2E/DX2                !
 ! A58   A(11,1,19)            152.1477         estimate D2E/DX2                !
 ! A59   A(11,1,20)            134.0895         estimate D2E/DX2                !
 ! A60   A(11,1,21)            102.7482         estimate D2E/DX2                !
 ! A61   A(17,1,19)             53.9934         estimate D2E/DX2                !
 ! A62   A(17,1,20)             54.9658         estimate D2E/DX2                !
 ! A63   A(18,1,20)             54.1736         estimate D2E/DX2                !
 ! A64   A(18,1,21)             58.8757         estimate D2E/DX2                !
 ! A65   A(19,1,21)             56.3611         estimate D2E/DX2                !
 ! A66   A(1,4,5)              120.8937         estimate D2E/DX2                !
 ! A67   A(1,4,15)             129.0373         estimate D2E/DX2                !
 ! A68   A(5,4,15)             109.1674         estimate D2E/DX2                !
 ! A69   A(4,5,6)              109.7187         estimate D2E/DX2                !
 ! A70   A(4,5,12)             126.8135         estimate D2E/DX2                !
 ! A71   A(6,5,12)             119.9304         estimate D2E/DX2                !
 ! A72   A(5,6,7)              104.0346         estimate D2E/DX2                !
 ! A73   A(5,6,22)             111.5817         estimate D2E/DX2                !
 ! A74   A(5,6,23)             109.8029         estimate D2E/DX2                !
 ! A75   A(7,6,22)             109.9383         estimate D2E/DX2                !
 ! A76   A(7,6,23)             112.5567         estimate D2E/DX2                !
 ! A77   A(22,6,23)            108.8965         estimate D2E/DX2                !
 ! A78   A(1,7,6)               99.3175         estimate D2E/DX2                !
 ! A79   A(6,7,8)              125.6322         estimate D2E/DX2                !
 ! A80   A(6,7,11)             126.864          estimate D2E/DX2                !
 ! A81   A(8,7,11)             105.8399         estimate D2E/DX2                !
 ! A82   A(1,8,24)             104.8668         estimate D2E/DX2                !
 ! A83   A(7,8,9)              108.8468         estimate D2E/DX2                !
 ! A84   A(7,8,24)             126.902          estimate D2E/DX2                !
 ! A85   A(9,8,24)             123.809          estimate D2E/DX2                !
 ! A86   A(1,9,25)             121.9562         estimate D2E/DX2                !
 ! A87   A(8,9,10)             110.8735         estimate D2E/DX2                !
 ! A88   A(8,9,25)             123.4291         estimate D2E/DX2                !
 ! A89   A(10,9,25)            125.6057         estimate D2E/DX2                !
 ! A90   A(1,10,26)            130.359          estimate D2E/DX2                !
 ! A91   A(9,10,11)            105.2915         estimate D2E/DX2                !
 ! A92   A(9,10,26)            127.8982         estimate D2E/DX2                !
 ! A93   A(11,10,26)           126.5248         estimate D2E/DX2                !
 ! A94   A(1,11,27)            134.0328         estimate D2E/DX2                !
 ! A95   A(7,11,10)            108.7805         estimate D2E/DX2                !
 ! A96   A(7,11,27)            124.7163         estimate D2E/DX2                !
 ! A97   A(10,11,27)           125.4182         estimate D2E/DX2                !
 ! A98   A(5,12,13)            118.138          estimate D2E/DX2                !
 ! A99   A(5,12,28)            121.0639         estimate D2E/DX2                !
 ! A100  A(13,12,28)           120.2449         estimate D2E/DX2                !
 ! A101  A(12,13,14)           118.9172         estimate D2E/DX2                !
 ! A102  A(12,13,29)           120.4963         estimate D2E/DX2                !
 ! A103  A(14,13,29)           120.3324         estimate D2E/DX2                !
 ! A104  A(13,14,15)           117.9734         estimate D2E/DX2                !
 ! A105  A(13,14,30)           120.9388         estimate D2E/DX2                !
 ! A106  A(15,14,30)           121.0839         estimate D2E/DX2                !
 ! A107  A(4,15,14)            126.8654         estimate D2E/DX2                !
 ! A108  A(4,15,16)            110.7937         estimate D2E/DX2                !
 ! A109  A(14,15,16)           122.3038         estimate D2E/DX2                !
 ! A110  A(15,16,17)           102.9254         estimate D2E/DX2                !
 ! A111  A(15,16,31)           110.9295         estimate D2E/DX2                !
 ! A112  A(15,16,32)           111.2629         estimate D2E/DX2                !
 ! A113  A(17,16,31)           112.6615         estimate D2E/DX2                !
 ! A114  A(17,16,32)           110.5599         estimate D2E/DX2                !
 ! A115  A(31,16,32)           108.4692         estimate D2E/DX2                !
 ! A116  A(1,17,16)            104.9718         estimate D2E/DX2                !
 ! A117  A(16,17,18)           116.7977         estimate D2E/DX2                !
 ! A118  A(16,17,21)           132.0225         estimate D2E/DX2                !
 ! A119  A(18,17,21)           109.7368         estimate D2E/DX2                !
 ! A120  A(1,18,33)            122.8287         estimate D2E/DX2                !
 ! A121  A(17,18,19)           105.7446         estimate D2E/DX2                !
 ! A122  A(17,18,33)           127.9927         estimate D2E/DX2                !
 ! A123  A(19,18,33)           126.2621         estimate D2E/DX2                !
 ! A124  A(1,19,34)            125.4876         estimate D2E/DX2                !
 ! A125  A(18,19,20)           108.876          estimate D2E/DX2                !
 ! A126  A(18,19,34)           126.5776         estimate D2E/DX2                !
 ! A127  A(20,19,34)           124.5403         estimate D2E/DX2                !
 ! A128  A(1,20,35)            121.5903         estimate D2E/DX2                !
 ! A129  A(19,20,21)           110.9013         estimate D2E/DX2                !
 ! A130  A(19,20,35)           123.2884         estimate D2E/DX2                !
 ! A131  A(21,20,35)           125.7857         estimate D2E/DX2                !
 ! A132  A(1,21,36)            114.9462         estimate D2E/DX2                !
 ! A133  A(17,21,20)           104.5927         estimate D2E/DX2                !
 ! A134  A(17,21,36)           127.5302         estimate D2E/DX2                !
 ! A135  A(20,21,36)           127.7304         estimate D2E/DX2                !
 ! A136  L(2,1,4,3,-1)         172.358          estimate D2E/DX2                !
 ! A137  L(7,1,19,2,-1)        186.3404         estimate D2E/DX2                !
 ! A138  L(8,1,18,2,-1)        180.592          estimate D2E/DX2                !
 ! A139  L(2,1,4,3,-2)         180.3928         estimate D2E/DX2                !
 ! A140  L(7,1,19,2,-2)        167.4843         estimate D2E/DX2                !
 ! A141  L(8,1,18,2,-2)        176.4044         estimate D2E/DX2                !
 ! D1    D(3,1,4,5)             39.0093         estimate D2E/DX2                !
 ! D2    D(3,1,4,15)          -153.096          estimate D2E/DX2                !
 ! D3    D(7,1,4,5)            -44.8331         estimate D2E/DX2                !
 ! D4    D(7,1,4,15)           123.0616         estimate D2E/DX2                !
 ! D5    D(8,1,4,5)            -41.1715         estimate D2E/DX2                !
 ! D6    D(8,1,4,15)           126.7233         estimate D2E/DX2                !
 ! D7    D(9,1,4,5)            -77.1382         estimate D2E/DX2                !
 ! D8    D(9,1,4,15)            90.7566         estimate D2E/DX2                !
 ! D9    D(10,1,4,5)           -97.3809         estimate D2E/DX2                !
 ! D10   D(10,1,4,15)           70.5138         estimate D2E/DX2                !
 ! D11   D(11,1,4,5)           -82.3035         estimate D2E/DX2                !
 ! D12   D(11,1,4,15)           85.5913         estimate D2E/DX2                !
 ! D13   D(17,1,4,5)           171.936          estimate D2E/DX2                !
 ! D14   D(17,1,4,15)          -20.1693         estimate D2E/DX2                !
 ! D15   D(18,1,4,5)           135.3668         estimate D2E/DX2                !
 ! D16   D(18,1,4,15)          -56.7384         estimate D2E/DX2                !
 ! D17   D(19,1,4,5)           123.6639         estimate D2E/DX2                !
 ! D18   D(19,1,4,15)          -68.4414         estimate D2E/DX2                !
 ! D19   D(20,1,4,5)           148.025          estimate D2E/DX2                !
 ! D20   D(20,1,4,15)          -44.0802         estimate D2E/DX2                !
 ! D21   D(21,1,4,5)          -178.9552         estimate D2E/DX2                !
 ! D22   D(21,1,4,15)          -11.0605         estimate D2E/DX2                !
 ! D23   D(2,1,7,6)           -122.6759         estimate D2E/DX2                !
 ! D24   D(3,1,7,6)            -35.0496         estimate D2E/DX2                !
 ! D25   D(4,1,7,6)             49.3625         estimate D2E/DX2                !
 ! D26   D(9,1,7,6)           -163.9638         estimate D2E/DX2                !
 ! D27   D(10,1,7,6)           160.0239         estimate D2E/DX2                !
 ! D28   D(17,1,7,6)            98.8606         estimate D2E/DX2                !
 ! D29   D(18,1,7,6)            49.6848         estimate D2E/DX2                !
 ! D30   D(20,1,7,6)          -162.5699         estimate D2E/DX2                !
 ! D31   D(21,1,7,6)           149.6516         estimate D2E/DX2                !
 ! D32   D(6,7,19,34)          -50.6394         estimate D2E/DX2                !
 ! D33   D(2,1,8,24)           -53.4938         estimate D2E/DX2                !
 ! D34   D(3,1,8,24)            38.849          estimate D2E/DX2                !
 ! D35   D(4,1,8,24)           118.4822         estimate D2E/DX2                !
 ! D36   D(10,1,8,24)         -154.9255         estimate D2E/DX2                !
 ! D37   D(11,1,8,24)          166.0455         estimate D2E/DX2                !
 ! D38   D(17,1,8,24)         -153.4705         estimate D2E/DX2                !
 ! D39   D(19,1,8,24)          -31.196          estimate D2E/DX2                !
 ! D40   D(20,1,8,24)          -71.1593         estimate D2E/DX2                !
 ! D41   D(21,1,8,24)         -111.7644         estimate D2E/DX2                !
 ! D42   D(24,8,18,33)          87.169          estimate D2E/DX2                !
 ! D43   D(2,1,9,25)            18.1622         estimate D2E/DX2                !
 ! D44   D(3,1,9,25)            93.73           estimate D2E/DX2                !
 ! D45   D(4,1,9,25)          -169.3233         estimate D2E/DX2                !
 ! D46   D(7,1,9,25)           152.9962         estimate D2E/DX2                !
 ! D47   D(11,1,9,25)         -163.2178         estimate D2E/DX2                !
 ! D48   D(17,1,9,25)          -83.513          estimate D2E/DX2                !
 ! D49   D(18,1,9,25)          -65.3867         estimate D2E/DX2                !
 ! D50   D(19,1,9,25)          -19.4527         estimate D2E/DX2                !
 ! D51   D(20,1,9,25)          -26.504          estimate D2E/DX2                !
 ! D52   D(21,1,9,25)          -56.9362         estimate D2E/DX2                !
 ! D53   D(2,1,10,26)           91.5523         estimate D2E/DX2                !
 ! D54   D(3,1,10,26)          179.9635         estimate D2E/DX2                !
 ! D55   D(4,1,10,26)          -93.4265         estimate D2E/DX2                !
 ! D56   D(7,1,10,26)         -157.9509         estimate D2E/DX2                !
 ! D57   D(8,1,10,26)          159.7704         estimate D2E/DX2                !
 ! D58   D(17,1,10,26)         -19.4653         estimate D2E/DX2                !
 ! D59   D(18,1,10,26)         -21.8511         estimate D2E/DX2                !
 ! D60   D(19,1,10,26)          17.558          estimate D2E/DX2                !
 ! D61   D(20,1,10,26)          34.805          estimate D2E/DX2                !
 ! D62   D(21,1,10,26)          14.8033         estimate D2E/DX2                !
 ! D63   D(2,1,11,27)          165.3576         estimate D2E/DX2                !
 ! D64   D(3,1,11,27)          -91.5136         estimate D2E/DX2                !
 ! D65   D(4,1,11,27)          -21.6376         estimate D2E/DX2                !
 ! D66   D(8,1,11,27)         -152.7895         estimate D2E/DX2                !
 ! D67   D(9,1,11,27)          163.9937         estimate D2E/DX2                !
 ! D68   D(17,1,11,27)          47.3403         estimate D2E/DX2                !
 ! D69   D(18,1,11,27)          23.5096         estimate D2E/DX2                !
 ! D70   D(19,1,11,27)          46.1608         estimate D2E/DX2                !
 ! D71   D(20,1,11,27)          95.3886         estimate D2E/DX2                !
 ! D72   D(21,1,11,27)          84.2068         estimate D2E/DX2                !
 ! D73   D(2,1,17,16)         -150.6732         estimate D2E/DX2                !
 ! D74   D(3,1,17,16)          102.0423         estimate D2E/DX2                !
 ! D75   D(4,1,17,16)           35.6044         estimate D2E/DX2                !
 ! D76   D(7,1,17,16)          -13.6765         estimate D2E/DX2                !
 ! D77   D(8,1,17,16)          -62.4393         estimate D2E/DX2                !
 ! D78   D(9,1,17,16)          -81.079          estimate D2E/DX2                !
 ! D79   D(10,1,17,16)         -61.2365         estimate D2E/DX2                !
 ! D80   D(11,1,17,16)         -29.4138         estimate D2E/DX2                !
 ! D81   D(19,1,17,16)         149.9051         estimate D2E/DX2                !
 ! D82   D(20,1,17,16)        -168.6928         estimate D2E/DX2                !
 ! D83   D(2,1,18,33)          140.4964         estimate D2E/DX2                !
 ! D84   D(3,1,18,33)           49.2818         estimate D2E/DX2                !
 ! D85   D(4,1,18,33)          -31.4065         estimate D2E/DX2                !
 ! D86   D(7,1,18,33)          -31.7328         estimate D2E/DX2                !
 ! D87   D(9,1,18,33)         -149.3855         estimate D2E/DX2                !
 ! D88   D(10,1,18,33)        -115.9478         estimate D2E/DX2                !
 ! D89   D(11,1,18,33)         -75.7677         estimate D2E/DX2                !
 ! D90   D(20,1,18,33)         161.5764         estimate D2E/DX2                !
 ! D91   D(21,1,18,33)        -159.2702         estimate D2E/DX2                !
 ! D92   D(2,1,19,34)           71.8321         estimate D2E/DX2                !
 ! D93   D(3,1,19,34)          -18.879          estimate D2E/DX2                !
 ! D94   D(4,1,19,34)         -100.4801         estimate D2E/DX2                !
 ! D95   D(8,1,19,34)           50.4352         estimate D2E/DX2                !
 ! D96   D(9,1,19,34)          105.4352         estimate D2E/DX2                !
 ! D97   D(10,1,19,34)         149.1438         estimate D2E/DX2                !
 ! D98   D(11,1,19,34)        -161.3802         estimate D2E/DX2                !
 ! D99   D(17,1,19,34)        -162.8235         estimate D2E/DX2                !
 ! D100  D(21,1,19,34)         152.3996         estimate D2E/DX2                !
 ! D101  D(2,1,20,35)            1.9252         estimate D2E/DX2                !
 ! D102  D(3,1,20,35)          -75.2467         estimate D2E/DX2                !
 ! D103  D(4,1,20,35)         -169.4572         estimate D2E/DX2                !
 ! D104  D(7,1,20,35)           48.0542         estimate D2E/DX2                !
 ! D105  D(8,1,20,35)           21.5919         estimate D2E/DX2                !
 ! D106  D(9,1,20,35)           49.2498         estimate D2E/DX2                !
 ! D107  D(10,1,20,35)          80.1455         estimate D2E/DX2                !
 ! D108  D(11,1,20,35)          98.1297         estimate D2E/DX2                !
 ! D109  D(17,1,20,35)         162.1674         estimate D2E/DX2                !
 ! D110  D(18,1,20,35)        -154.6547         estimate D2E/DX2                !
 ! D111  D(2,1,21,36)          -75.968          estimate D2E/DX2                !
 ! D112  D(3,1,21,36)         -148.7246         estimate D2E/DX2                !
 ! D113  D(4,1,21,36)          109.1734         estimate D2E/DX2                !
 ! D114  D(7,1,21,36)           23.7979         estimate D2E/DX2                !
 ! D115  D(8,1,21,36)          -20.1009         estimate D2E/DX2                !
 ! D116  D(9,1,21,36)          -13.4848         estimate D2E/DX2                !
 ! D117  D(10,1,21,36)          14.9391         estimate D2E/DX2                !
 ! D118  D(11,1,21,36)          37.4708         estimate D2E/DX2                !
 ! D119  D(18,1,21,36)         161.3604         estimate D2E/DX2                !
 ! D120  D(19,1,21,36)        -162.7623         estimate D2E/DX2                !
 ! D121  D(1,4,5,6)             28.4688         estimate D2E/DX2                !
 ! D122  D(1,4,5,12)          -173.0478         estimate D2E/DX2                !
 ! D123  D(15,4,5,6)          -141.601          estimate D2E/DX2                !
 ! D124  D(15,4,5,12)           16.8824         estimate D2E/DX2                !
 ! D125  D(1,4,15,14)          177.6945         estimate D2E/DX2                !
 ! D126  D(1,4,15,16)           -0.1147         estimate D2E/DX2                !
 ! D127  D(5,4,15,14)          -13.2884         estimate D2E/DX2                !
 ! D128  D(5,4,15,16)          168.9024         estimate D2E/DX2                !
 ! D129  D(4,5,6,7)             20.474          estimate D2E/DX2                !
 ! D130  D(4,5,6,22)           138.9557         estimate D2E/DX2                !
 ! D131  D(4,5,6,23)          -100.2073         estimate D2E/DX2                !
 ! D132  D(12,5,6,7)          -139.7209         estimate D2E/DX2                !
 ! D133  D(12,5,6,22)          -21.2393         estimate D2E/DX2                !
 ! D134  D(12,5,6,23)           99.5978         estimate D2E/DX2                !
 ! D135  D(4,5,12,13)           -9.8848         estimate D2E/DX2                !
 ! D136  D(4,5,12,28)          178.6259         estimate D2E/DX2                !
 ! D137  D(6,5,12,13)          146.6372         estimate D2E/DX2                !
 ! D138  D(6,5,12,28)          -24.8521         estimate D2E/DX2                !
 ! D139  D(5,6,7,1)            -45.4965         estimate D2E/DX2                !
 ! D140  D(5,6,7,8)           -120.4951         estimate D2E/DX2                !
 ! D141  D(5,6,7,11)            42.6854         estimate D2E/DX2                !
 ! D142  D(22,6,7,1)          -165.1001         estimate D2E/DX2                !
 ! D143  D(22,6,7,8)           119.9013         estimate D2E/DX2                !
 ! D144  D(22,6,7,11)          -76.9182         estimate D2E/DX2                !
 ! D145  D(23,6,7,1)            73.3175         estimate D2E/DX2                !
 ! D146  D(23,6,7,8)            -1.6811         estimate D2E/DX2                !
 ! D147  D(23,6,7,11)          161.4994         estimate D2E/DX2                !
 ! D148  D(6,7,8,9)            165.7603         estimate D2E/DX2                !
 ! D149  D(6,7,8,24)            -6.7853         estimate D2E/DX2                !
 ! D150  D(11,7,8,9)            -0.3153         estimate D2E/DX2                !
 ! D151  D(11,7,8,24)         -172.8609         estimate D2E/DX2                !
 ! D152  D(6,7,11,10)         -161.9628         estimate D2E/DX2                !
 ! D153  D(6,7,11,27)           29.428          estimate D2E/DX2                !
 ! D154  D(8,7,11,10)            3.887          estimate D2E/DX2                !
 ! D155  D(8,7,11,27)         -164.7223         estimate D2E/DX2                !
 ! D156  D(7,8,9,10)            -3.6362         estimate D2E/DX2                !
 ! D157  D(7,8,9,25)           179.6737         estimate D2E/DX2                !
 ! D158  D(24,8,9,10)          169.1911         estimate D2E/DX2                !
 ! D159  D(24,8,9,25)           -7.4991         estimate D2E/DX2                !
 ! D160  D(8,9,10,11)            5.8649         estimate D2E/DX2                !
 ! D161  D(8,9,10,26)          179.9905         estimate D2E/DX2                !
 ! D162  D(25,9,10,11)        -177.5327         estimate D2E/DX2                !
 ! D163  D(25,9,10,26)          -3.407          estimate D2E/DX2                !
 ! D164  D(9,10,11,7)           -6.0022         estimate D2E/DX2                !
 ! D165  D(9,10,11,27)         162.5073         estimate D2E/DX2                !
 ! D166  D(26,10,11,7)         179.7658         estimate D2E/DX2                !
 ! D167  D(26,10,11,27)        -11.7247         estimate D2E/DX2                !
 ! D168  D(5,12,13,14)          -3.0536         estimate D2E/DX2                !
 ! D169  D(5,12,13,29)        -177.2825         estimate D2E/DX2                !
 ! D170  D(28,12,13,14)        168.508          estimate D2E/DX2                !
 ! D171  D(28,12,13,29)         -5.7209         estimate D2E/DX2                !
 ! D172  D(12,13,14,15)          6.1167         estimate D2E/DX2                !
 ! D173  D(12,13,14,30)       -174.594          estimate D2E/DX2                !
 ! D174  D(29,13,14,15)       -179.6447         estimate D2E/DX2                !
 ! D175  D(29,13,14,30)         -0.3554         estimate D2E/DX2                !
 ! D176  D(13,14,15,4)           2.8254         estimate D2E/DX2                !
 ! D177  D(13,14,15,16)       -179.5978         estimate D2E/DX2                !
 ! D178  D(30,14,15,4)        -176.4628         estimate D2E/DX2                !
 ! D179  D(30,14,15,16)          1.114          estimate D2E/DX2                !
 ! D180  D(4,15,16,17)          32.186          estimate D2E/DX2                !
 ! D181  D(4,15,16,31)         -88.5443         estimate D2E/DX2                !
 ! D182  D(4,15,16,32)         150.6067         estimate D2E/DX2                !
 ! D183  D(14,15,16,17)       -145.7404         estimate D2E/DX2                !
 ! D184  D(14,15,16,31)         93.5293         estimate D2E/DX2                !
 ! D185  D(14,15,16,32)        -27.3197         estimate D2E/DX2                !
 ! D186  D(15,16,17,1)         -42.3622         estimate D2E/DX2                !
 ! D187  D(15,16,17,18)         44.8712         estimate D2E/DX2                !
 ! D188  D(15,16,17,21)       -119.7978         estimate D2E/DX2                !
 ! D189  D(31,16,17,1)          77.1749         estimate D2E/DX2                !
 ! D190  D(31,16,17,18)        164.4083         estimate D2E/DX2                !
 ! D191  D(31,16,17,21)         -0.2607         estimate D2E/DX2                !
 ! D192  D(32,16,17,1)        -161.2743         estimate D2E/DX2                !
 ! D193  D(32,16,17,18)        -74.0408         estimate D2E/DX2                !
 ! D194  D(32,16,17,21)        121.2901         estimate D2E/DX2                !
 ! D195  D(16,17,18,19)       -169.2513         estimate D2E/DX2                !
 ! D196  D(16,17,18,33)         10.4786         estimate D2E/DX2                !
 ! D197  D(21,17,18,19)         -1.2959         estimate D2E/DX2                !
 ! D198  D(21,17,18,33)        178.4341         estimate D2E/DX2                !
 ! D199  D(16,17,21,20)        168.7419         estimate D2E/DX2                !
 ! D200  D(16,17,21,36)        -15.4186         estimate D2E/DX2                !
 ! D201  D(18,17,21,20)          3.2626         estimate D2E/DX2                !
 ! D202  D(18,17,21,36)        179.102          estimate D2E/DX2                !
 ! D203  D(17,18,19,20)         -1.1027         estimate D2E/DX2                !
 ! D204  D(17,18,19,34)        179.7616         estimate D2E/DX2                !
 ! D205  D(33,18,19,20)        179.1612         estimate D2E/DX2                !
 ! D206  D(33,18,19,34)          0.0255         estimate D2E/DX2                !
 ! D207  D(18,19,20,21)          3.3526         estimate D2E/DX2                !
 ! D208  D(18,19,20,35)       -178.362          estimate D2E/DX2                !
 ! D209  D(34,19,20,21)       -177.49           estimate D2E/DX2                !
 ! D210  D(34,19,20,35)          0.7954         estimate D2E/DX2                !
 ! D211  D(19,20,21,17)         -3.9387         estimate D2E/DX2                !
 ! D212  D(19,20,21,36)       -179.7669         estimate D2E/DX2                !
 ! D213  D(35,20,21,17)        177.8281         estimate D2E/DX2                !
 ! D214  D(35,20,21,36)          1.9999         estimate D2E/DX2                !
 --------------------------------------------------------------------------------
 Trust Radius=3.00D-01 FncErr=1.00D-07 GrdErr=1.00D-07
 Number of steps in this run=    216 maximum allowed number of steps=    216.
 GradGradGradGradGradGradGradGradGradGradGradGradGradGradGradGradGradGrad

 Leave Link  103 at Mon Sep 15 20:25:45 2025, MaxMem=    33554432 cpu:         0.0
 (Enter /appl/g09.shchoi/G09Files/g09/l202.exe)
                          Input orientation:                          
 ---------------------------------------------------------------------
 Center     Atomic      Atomic             Coordinates (Angstroms)
 Number     Number       Type             X           Y           Z
 ---------------------------------------------------------------------
      1         40           0        0.000000    0.000000    0.000000
      2         17           0        0.000000    0.000000   -1.939000
      3         17           0        1.939000    0.000000    0.000000
      4          7           0        0.228997   -0.011699    1.706666
      5          6           0        1.238723    0.732276    2.293686
      6          6           0        1.536375    1.933011    1.451202
      7          6           0        0.311101    2.105097    0.621836
      8          6           0        0.265279    2.081456   -0.711209
      9          6           0       -1.113324    1.945977   -1.129183
     10          6           0       -1.922676    1.805538   -0.068725
     11          6           0       -1.082848    1.988608    1.073317
     12          6           0        1.620949    0.711239    3.636102
     13          6           0        0.810835    0.031347    4.537612
     14          6           0       -0.369161   -0.539519    4.081311
     15          6           0       -0.620240   -0.513801    2.712522
     16          6           0       -1.867057   -1.093618    2.115778
     17          6           0       -1.400482   -1.617378    0.823874
     18          6           0       -0.151791   -2.368102    0.831740
     19          6           0        0.181517   -2.526656   -0.444345
     20          6           0       -0.838921   -1.917006   -1.275021
     21          6           0       -1.772667   -1.314157   -0.521753
     22          1           0        1.700293    2.825305    2.065051
     23          1           0        2.430293    1.749498    0.846640
     24          1           0        1.102364    2.038129   -1.385715
     25          1           0       -1.420130    1.907325   -2.163457
     26          1           0       -2.993436    1.685123   -0.064665
     27          1           0       -1.425573    2.207774    2.073214
     28          1           0        2.444297    1.320265    3.993158
     29          1           0        1.048024    0.027446    5.597381
     30          1           0       -1.067650   -1.001523    4.769983
     31          1           0       -2.640027   -0.327965    2.005633
     32          1           0       -2.266007   -1.902623    2.737459
     33          1           0        0.402874   -2.724702    1.684805
     34          1           0        1.054818   -3.034933   -0.822326
     35          1           0       -0.812514   -1.933699   -2.353781
     36          1           0       -2.645120   -0.785794   -0.855506
 ---------------------------------------------------------------------
                    Distance matrix (angstroms):
                    1          2          3          4          5
     1  Zr   0.000000
     2  Cl   1.939000   0.000000
     3  Cl   1.939000   2.742160   0.000000
     4  N    1.722000   3.652869   2.415979   0.000000
     5  C    2.707703   4.470603   2.507511   1.384788   0.000000
     6  C    2.864083   4.194098   2.450434   2.357201   1.496710
     7  C    2.216957   3.329579   2.732795   2.380005   2.353764
     8  C    2.215548   2.431112   2.763986   3.198239   3.434716
     9  C    2.510253   2.383720   3.791908   3.698157   4.326804
    10  C    2.638442   3.233355   4.263477   3.329273   4.089905
    11  C    2.505819   3.768445   3.773346   2.474530   2.908155
    12  C    4.044079   5.849367   3.718636   2.486542   1.395929
    13  C    4.609594   6.527246   4.675860   2.890441   2.389476
    14  C    4.133335   6.055700   4.719723   2.505061   2.719992
    15  C    2.829570   4.720736   3.764502   1.408921   2.276813
    16  C    3.026289   4.595991   4.489832   2.394028   3.607134
    17  C    2.292604   3.494386   3.800898   2.452087   3.827091
    18  C    2.514505   3.648006   3.266666   2.542268   3.699075
    19  C    2.571844   2.941247   3.109691   3.309699   4.385788
    20  C    2.450383   2.195351   3.607968   3.696092   4.906217
    21  C    2.267506   2.622584   3.971865   3.266329   4.602505
    22  H    3.890730   5.187077   3.507672   3.215858   2.155479
    23  H    3.111891   4.089848   2.004722   2.947399   2.132726
    24  H    2.699886   2.382289   2.602717   3.811480   3.906640
    25  H    3.214841   2.388522   4.427436   4.623865   5.321312
    26  H    3.435765   3.913238   5.212748   4.049801   4.937702
    27  H    3.347349   4.796289   4.526902   2.792494   3.053552
    28  H    4.864462   6.550434   4.236004   3.451047   2.165027
    29  H    5.694716   7.608952   5.667916   3.976180   3.383424
    30  H    4.989556   6.866832   5.726756   3.470585   3.802298
    31  H    3.331646   4.757881   5.009752   2.901845   4.031351
    32  H    4.030936   5.533899   5.366166   3.295933   4.407126
    33  H    3.228758   4.551733   3.552781   2.718657   3.608334
    34  H    3.316577   3.401532   3.266316   4.027124   4.892363
    35  H    3.152722   2.138087   4.104912   4.611513   5.737067
    36  H    2.888949   2.964471   4.729008   3.927404   5.225532
                    6          7          8          9         10
     6  C    0.000000
     7  C    1.489550   0.000000
     8  C    2.512717   1.334042   0.000000
     9  C    3.698576   2.262824   1.446929   0.000000
    10  C    3.780405   2.357195   2.296969   1.341397   0.000000
    11  C    2.646926   1.469864   2.238438   2.203124   1.429365
    12  C    2.504729   3.569922   4.755465   5.631054   5.242185
    13  C    3.697115   4.459089   5.661334   6.283372   5.642533
    14  C    4.081905   4.407348   5.499116   5.820715   5.013531
    15  C    3.496971   3.478073   4.386507   4.588283   3.848507
    16  C    4.602771   4.148255   4.756030   4.509660   3.630462
    17  C    4.650155   4.102092   4.337352   4.073622   3.575720
    18  C    4.661889   4.501981   4.727918   4.835395   4.622352
    19  C    5.031637   4.754648   4.616594   4.706386   4.830800
    20  C    5.281757   4.593248   4.186268   3.875461   4.060420
    21  C    5.038493   4.164275   3.964759   3.381150   3.155984
    22  H    1.095384   2.128714   3.212506   4.346583   4.326526
    23  H    1.094651   2.160547   2.687820   4.061982   4.448525
    24  H    2.871849   2.158899   1.075893   2.232392   3.307481
    25  H    4.669833   3.285442   2.231580   1.079512   2.156575
    26  H    4.783146   3.401121   3.345792   2.176250   1.077516
    27  H    3.039001   2.265630   3.260054   3.228218   2.235354
    28  H    2.767908   4.065993   5.240095   6.267899   5.983714
    29  H    4.589169   5.442035   6.680566   7.321124   6.640138
    30  H    5.138750   5.362758   6.428447   6.594696   5.658954
    31  H    4.781395   4.067412   4.650522   4.162777   3.060946
    32  H    5.551996   5.213364   5.845820   5.575960   4.662939
    33  H    4.799343   4.946240   5.372055   5.659738   5.385733
    34  H    5.484643   5.390606   5.178143   5.440999   5.732674
    35  H    5.911567   5.140883   4.470028   4.079462   4.520601
    36  H    5.495244   4.390790   4.088077   3.143862   2.802847
                   11         12         13         14         15
    11  C    0.000000
    12  C    3.938281   0.000000
    13  C    4.406614   1.389697   0.000000
    14  C    3.993595   2.392310   1.387980   0.000000
    15  C    3.027053   2.715999   2.382460   1.391864   0.000000
    16  C    3.346913   4.211304   3.781790   2.532595   1.498948
    17  C    3.628533   4.739212   4.626021   3.582778   2.322424
    18  C    4.461630   4.526521   4.518572   3.735061   2.682390
    19  C    4.928441   5.404255   5.635540   4.973281   3.828865
    20  C    4.563771   6.089150   6.348580   5.550534   4.232883
    21  C    3.732071   5.736429   5.837983   4.874227   3.525506
    22  H    3.070744   2.635104   3.835479   4.435086   4.117489
    23  H    3.528557   3.084496   4.381548   4.851766   4.231996
    24  H    3.290052   5.219982   6.260828   6.220774   5.125940
    25  H    3.255314   6.656851   7.307587   6.788866   5.502440
    26  H    2.244426   5.994720   6.195837   5.387482   4.263811
    27  H    1.079486   3.736781   3.976382   3.563156   2.909338
    28  H    4.627408   1.084575   2.150799   3.373739   3.794102
    29  H    5.371586   2.154631   1.085995   2.151356   3.376162
    30  H    4.754625   3.383461   2.156275   1.084253   2.161295
    31  H    2.942878   4.679133   4.295168   3.083832   2.147967
    32  H    4.394418   4.769514   4.055582   2.694813   2.153601
    33  H    4.979616   4.134847   3.987574   3.333812   2.644059
    34  H    5.779191   5.850803   6.179850   5.683350   4.653717
    35  H    5.215608   6.985423   7.347650   6.599296   5.265026
    36  H    3.722682   6.372989   6.457327   5.441765   4.111562
                   16         17         18         19         20
    16  C    0.000000
    17  C    1.470046   0.000000
    18  C    2.493031   1.457010   0.000000
    19  C    3.578336   2.222136   1.328392   0.000000
    20  C    3.637657   2.193282   2.261432   1.450169   0.000000
    21  C    2.648418   1.428698   2.360081   2.301083   1.342655
    22  H    5.299671   5.558126   5.650021   6.103051   6.331918
    23  H    5.306716   5.100119   4.860248   5.000913   5.350930
    24  H    5.557496   4.950683   5.089684   4.750937   4.407259
    25  H    5.245690   4.620397   5.372072   5.018049   3.968958
    26  H    3.707352   3.772733   5.030618   5.288059   4.368321
    27  H    3.331053   4.024087   4.909422   5.597828   5.344965
    28  H    5.285751   5.784154   5.508020   6.293679   7.000938
    29  H    4.677183   5.611328   5.467133   6.616398   7.387243
    30  H    2.773506   4.007722   4.268032   5.574556   6.118211
    31  H    1.093544   2.143738   3.425128   4.335637   4.065922
    32  H    1.095508   2.119506   2.884154   4.062471   4.258729
    33  H    2.828208   2.284614   1.078210   2.149767   3.309833
    34  H    4.575863   3.278405   2.153254   1.078828   2.245204
    35  H    4.668485   3.247038   3.282195   2.232856   1.079212
    36  H    3.086854   2.249661   3.401057   3.345076   2.172093
                   21         22         23         24         25
    21  C    0.000000
    22  H    5.990672   0.000000
    23  H    5.378044   1.781792   0.000000
    24  H    4.500006   3.589561   2.613449   0.000000
    25  H    3.632826   5.334792   4.889923   2.642909   0.000000
    26  H    3.270304   5.278900   5.500132   4.318028   2.632412
    27  H    4.388432   3.186291   4.072125   4.287591   4.247315
    28  H    6.716203   2.556616   3.175690   5.590026   7.292622
    29  H    6.870226   4.553112   5.238862   7.267010   8.358011
    30  H    5.347641   5.442681   5.932651   7.200074   7.527166
    31  H    2.848257   5.365167   5.600648   5.577198   4.885283
    32  H    3.348454   6.207815   6.242469   6.623897   6.264997
    33  H    3.404631   5.712308   4.983113   5.709811   6.291911
    34  H    3.323565   6.564753   5.250540   5.104472   5.687699
    35  H    2.159178   6.963360   5.858706   4.514347   3.893441
    36  H    1.073188   6.360212   5.923244   4.722213   3.234845
                   26         27         28         29         30
    26  H    0.000000
    27  H    2.702200   0.000000
    28  H    6.794702   4.410187   0.000000
    29  H    7.151228   4.826207   2.488874   0.000000
    30  H    5.856666   4.207168   4.281113   2.493881   0.000000
    31  H    2.909219   2.812373   5.702391   5.160300   3.250797
    32  H    4.610095   4.247696   5.843864   4.784049   2.525707
    33  H    5.834562   5.274790   5.085042   4.826882   3.827547
    34  H    6.264291   6.482475   6.639826   7.112725   6.317718
    35  H    4.805449   6.093105   7.840837   8.398135   7.189024
    36  H    2.617668   4.361898   7.338064   7.479334   5.846459
                   31         32         33         34         35
    31  H    0.000000
    32  H    1.776234   0.000000
    33  H    3.886711   2.984430   0.000000
    34  H    5.383020   4.998207   2.609019   0.000000
    35  H    4.992261   5.294746   4.291041   2.654242   0.000000
    36  H    2.897543   3.781592   4.416199   4.330043   2.630771
                   36
    36  H    0.000000
 Stoichiometry    C17H15Cl2NZr
 Framework group  C1[X(C17H15Cl2NZr)]
 Deg. of freedom   102
 Full point group                 C1      NOp   1
 Largest Abelian subgroup         C1      NOp   1
 Largest concise Abelian subgroup C1      NOp   1
                         Standard orientation:                         
 ---------------------------------------------------------------------
 Center     Atomic      Atomic             Coordinates (Angstroms)
 Number     Number       Type             X           Y           Z
 ---------------------------------------------------------------------
      1         40           0        0.582456   -0.036504   -0.115025
      2         17           0        2.482324   -0.304836   -0.394703
      3         17           0        0.216800   -0.813435   -1.853528
      4          7           0       -1.132176    0.118515   -0.079075
      5          6           0       -1.947075   -0.878654   -0.588222
      6          6           0       -1.257313   -2.202018   -0.473870
      7          6           0       -0.225029   -1.981699    0.577133
      8          6           0        1.091321   -2.126403    0.416042
      9          6           0        1.769816   -1.509153    1.535082
     10          6           0        0.892695   -0.910907    2.354904
     11          6           0       -0.396807   -1.255179    1.843293
     12          6           0       -3.333085   -0.826981   -0.746105
     13          6           0       -4.018566    0.238158   -0.174394
     14          6           0       -3.311112    1.164856    0.578752
     15          6           0       -1.924303    1.052745    0.617205
     16          6           0       -1.066047    1.994890    1.406258
     17          6           0        0.146515    2.103529    0.582289
     18          6           0       -0.046910    2.284217   -0.850477
     19          6           0        1.151076    2.117676   -1.399767
     20          6           0        2.117012    1.859434   -0.349401
     21          6           0        1.515073    1.791813    0.848855
     22          1           0       -1.948828   -2.990903   -0.158698
     23          1           0       -0.821363   -2.477653   -1.439393
     24          1           0        1.597229   -2.515912   -0.449918
     25          1           0        2.843636   -1.494342    1.644798
     26          1           0        1.098621   -0.372246    3.265113
     27          1           0       -1.326422   -1.177982    2.386567
     28          1           0       -3.878569   -1.659071   -1.177818
     29          1           0       -5.101418    0.293311   -0.235831
     30          1           0       -3.823542    1.958473    1.110910
     31          1           0       -0.863108    1.595911    2.403990
     32          1           0       -1.546325    2.973495    1.514898
     33          1           0       -0.963721    2.502997   -1.374051
     34          1           0        1.390432    2.175797   -2.450100
     35          1           0        3.170128    1.714687   -0.535665
     36          1           0        1.971596    1.616666    1.804179
 ---------------------------------------------------------------------
 Rotational constants (GHZ):      0.4801901      0.3354197      0.2888319
 Leave Link  202 at Mon Sep 15 20:25:45 2025, MaxMem=    33554432 cpu:         0.0
 (Enter /appl/g09.shchoi/G09Files/g09/l301.exe)
 Standard basis: SDD (6D, 10F)
 Ernie: Thresh=  0.10000D-02 Tol=  0.10000D-05 Strict=F.
 There are   285 symmetry adapted cartesian basis functions of A   symmetry.
 There are   285 symmetry adapted basis functions of A   symmetry.
   285 basis functions,   629 primitive gaussians,   285 cartesian basis functions
    85 alpha electrons       85 beta electrons
       nuclear repulsion energy      2368.2680495196 Hartrees.



 Warning!  Cl atom    2 may be hypervalent but has no d functions.
 Warning!  Cl atom    3 may be hypervalent but has no d functions.



 IExCor=    0 DFT=F Ex=HF Corr=None ExCW=0 ScaHFX=  1.000000
 ScaDFX=  1.000000  1.000000  1.000000  1.000000 ScalE2=  1.000000  1.000000
 IRadAn=      0 IRanWt=     -1 IRanGd=            0 ICorTp=0 IEmpDi=  4
 NAtoms=   36 NActive=   36 NUniq=   36 SFac= 1.00D+00 NAtFMM=   60 NAOKFM=F Big=F
 Integral buffers will be    131072 words long.
 Raffenetti 1 integral format.
 Two-electron integral symmetry is turned on.
 Leave Link  301 at Mon Sep 15 20:25:45 2025, MaxMem=    33554432 cpu:         0.0
 (Enter /appl/g09.shchoi/G09Files/g09/l402.exe)
 External calculation of energy and first derivatives.
 Running external command "/home/rxn_grp/programs/xtb-gaussian R"
         input file       "/home/rxn_grp/scratch/metallogen_test/Gau-3470214.EIn"
         output file      "/home/rxn_grp/scratch/metallogen_test/Gau-3470214.EOu"
         message file     "/home/rxn_grp/scratch/metallogen_test/Gau-3470214.EMs"
         fchk file        "/home/rxn_grp/scratch/metallogen_test/Gau-3470214.EFC"
         mat. el file     "/home/rxn_grp/scratch/metallogen_test/Gau-3470214.EUF"

 ExternalExternalExternalExternalExternalExternalExternalExternalExternalExternal
 Output from external command:
 "/home/rxn_grp/programs/xtb-gaussian R /home/rxn_grp/scratch/metallogen_test/Gau-3470214.EIn /home/rxn_grp/scratch/metallogen_test/Gau-3470214.EOu /home/rxn_grp/scratch/metallogen_test/Gau-3470214.EMs /home/rxn_grp/scratch/metallogen_test/Gau-3470214.EFC /home/rxn_grp/scratch/metallogen_test/Gau-3470214.EUF"
 normal termination of xtb
  
 ------- xtb command was ---------
 ?> xtb ./Gau-3470214.EIn  --grad --charge 0  >/dev/null 2>Gau-3470214.EMs
 ---------------------------------
              Control returned to Gaussian.
 ~~~~~~~~~~~~~~~~~~~~~~~~~~~~~~~~~~~~~~~~~~~~~~~~~~~~~~~~~~~~~~~~~~~~~~~~~
 ExternalExternalExternalExternalExternalExternalExternalExternalExternalExternal

 Recovered energy= -57.4657752870     dipole=     -2.071111278590      0.306187757205      1.306376909950
 Energy=    -57.4657753     NIter=   0.
 Dipole moment=      -2.071111       0.306188       1.306377
 Leave Link  402 at Mon Sep 15 20:25:45 2025, MaxMem=    33554432 cpu:         0.0
 (Enter /appl/g09.shchoi/G09Files/g09/l601.exe)
 Leave Link  601 at Mon Sep 15 20:25:45 2025, MaxMem=    33554432 cpu:         0.0
 (Enter /appl/g09.shchoi/G09Files/g09/l716.exe)
 Dipole        =-2.07111128D+00 3.06187757D-01 1.30637691D+00
 ***** Axes restored to original set *****
 -------------------------------------------------------------------
 Center     Atomic                   Forces (Hartrees/Bohr)
 Number     Number              X              Y              Z
 -------------------------------------------------------------------
      1       40          -0.273328656   -0.021605083    0.037076468
      2       17           0.051802916    0.019157857   -0.334144219
      3       17           0.300105358   -0.067862418   -0.043845625
      4        7           0.008826491    0.002567383    0.321922163
      5        6          -0.007541043    0.010993911    0.010614574
      6        6           0.012352418    0.030493704    0.017749482
      7        6          -0.033818129    0.036704370    0.049260080
      8        6          -0.015991867    0.045470802   -0.058511511
      9        6           0.013040352    0.032170848   -0.036423449
     10        6          -0.000549584    0.010669914    0.039815082
     11        6           0.012823086   -0.001414385    0.008308827
     12        6          -0.013838609   -0.004204581   -0.003074053
     13        6           0.011365287    0.000784992    0.010860500
     14        6          -0.000187473    0.002643730   -0.018350022
     15        6           0.010749653   -0.000684160   -0.005426948
     16        6          -0.008887591   -0.002783184    0.010486754
     17        6           0.003168634   -0.024232994    0.003230207
     18        6          -0.040357810    0.017870718    0.041555837
     19        6           0.001116380   -0.008279656   -0.080018538
     20        6           0.031422912   -0.087232382   -0.023156002
     21        6          -0.039750551   -0.013812380    0.051732222
     22        1           0.001579709    0.000621501    0.007082956
     23        1          -0.000813006    0.023680378    0.006228578
     24        1           0.005733135    0.013513432   -0.004993247
     25        1          -0.002993404    0.006367606   -0.002566602
     26        1          -0.002547930    0.003504910    0.001365841
     27        1          -0.000010125   -0.003524171    0.004393902
     28        1          -0.002345197   -0.003234274   -0.004765240
     29        1           0.000388707   -0.001582204   -0.004214232
     30        1           0.001118752    0.003171245   -0.005136519
     31        1          -0.002487739    0.003585581    0.000552698
     32        1          -0.001509477    0.001878139    0.003959236
     33        1          -0.002611000   -0.001593947    0.005164491
     34        1           0.001648833   -0.003337510   -0.004293691
     35        1          -0.008481631   -0.020894976   -0.000851466
     36        1          -0.009191802    0.000427280   -0.001588535
 -------------------------------------------------------------------
 Cartesian Forces:  Max     0.334144219 RMS     0.063513894
 Leave Link  716 at Mon Sep 15 20:25:45 2025, MaxMem=    33554432 cpu:         0.0
 (Enter /appl/g09.shchoi/G09Files/g09/l103.exe)

 GradGradGradGradGradGradGradGradGradGradGradGradGradGradGradGradGradGrad
 Berny optimization.
 FormGI is forming the generalized inverse of G from B-inverse, IUseBI=4.
 Internal  Forces:  Max     0.334144218 RMS     0.028213928
 Search for a local minimum.
 Step number   1 out of a maximum of  216
 All quantities printed in internal units (Hartrees-Bohrs-Radians)
 RMS Force = .28214D-01 SwitMx=.10000D-02 MixMth= 1
 Mixed Optimization -- RFO/linear search
 Second derivative matrix not updated -- first step.
 ITU=  0
     Eigenvalues ---    0.01252   0.01388   0.01513   0.01614   0.01654
     Eigenvalues ---    0.01691   0.01864   0.01967   0.02024   0.02043
     Eigenvalues ---    0.02202   0.02220   0.02227   0.02248   0.02251
     Eigenvalues ---    0.02320   0.02438   0.02625   0.02644   0.02747
     Eigenvalues ---    0.02922   0.03040   0.03447   0.03618   0.03746
     Eigenvalues ---    0.03763   0.03838   0.04033   0.04156   0.04316
     Eigenvalues ---    0.04615   0.04828   0.05102   0.05272   0.05954
     Eigenvalues ---    0.06081   0.06326   0.06364   0.06449   0.06693
     Eigenvalues ---    0.07235   0.07723   0.07994   0.08203   0.08329
     Eigenvalues ---    0.08725   0.09030   0.09144   0.09565   0.10776
     Eigenvalues ---    0.12733   0.15796   0.15929   0.15999   0.16064
     Eigenvalues ---    0.16509   0.17432   0.17765   0.18211   0.18621
     Eigenvalues ---    0.19253   0.19692   0.21262   0.22412   0.25486
     Eigenvalues ---    0.26540   0.27419   0.28604   0.28864   0.29937
     Eigenvalues ---    0.30128   0.30579   0.31587   0.32039   0.34184
     Eigenvalues ---    0.34198   0.34281   0.34406   0.35280   0.35447
     Eigenvalues ---    0.35485   0.35614   0.36053   0.36057   0.36090
     Eigenvalues ---    0.36136   0.36211   0.36296   0.36495   0.36830
     Eigenvalues ---    0.38831   0.39521   0.40730   0.40964   0.41138
     Eigenvalues ---    0.44148   0.45026   0.45927   0.46670   0.46765
     Eigenvalues ---    0.46765   0.47380
 RFO step:  Lambda=-4.06114986D-01 EMin= 1.25163460D-02
 Linear search not attempted -- first point.
 Maximum step size (   0.300) exceeded in Quadratic search.
    -- Step size scaled by   0.432
 Iteration  1 RMS(Cart)=  0.02205326 RMS(Int)=  0.00021266
 Iteration  2 RMS(Cart)=  0.00021152 RMS(Int)=  0.00004456
 Iteration  3 RMS(Cart)=  0.00000009 RMS(Int)=  0.00004456
 ITry= 1 IFail=0 DXMaxC= 1.99D-01 DCOld= 1.00D+10 DXMaxT= 3.00D-01 DXLimC= 3.00D+00 Rises=F
 Variable       Old X    -DE/DX   Delta X   Delta X   Delta X     New X
                                 (Linear)    (Quad)   (Total)
    R1        3.66418   0.33414   0.00000   0.16513   0.16513   3.82931
    R2        3.66418   0.30011   0.00000   0.14831   0.14831   3.81249
    R3        3.25411   0.22005   0.00000   0.12278   0.12288   3.37699
    R4        4.18944   0.06641   0.00000   0.04927   0.04935   4.23879
    R5        4.18678   0.05985   0.00000   0.04955   0.04955   4.23633
    R6        4.74369   0.02998   0.00000   0.02758   0.02757   4.77126
    R7        4.98593  -0.00000   0.00000   0.00157   0.00151   4.98744
    R8        4.73531   0.01701   0.00000   0.01090   0.01096   4.74628
    R9        4.33239   0.01957   0.00000   0.01587   0.01578   4.34817
   R10        4.75173   0.00218   0.00000   0.00154   0.00149   4.75321
   R11        4.86008   0.03202   0.00000   0.02575   0.02583   4.88591
   R12        4.63055   0.06263   0.00000   0.05303   0.05303   4.68358
   R13        4.28497   0.03026   0.00000   0.02837   0.02832   4.31328
   R14        2.61687  -0.00437   0.00000   0.00113   0.00113   2.61800
   R15        2.66247  -0.04632   0.00000  -0.02231  -0.02219   2.64029
   R16        2.82837   0.05862   0.00000   0.03269   0.03257   2.86094
   R17        2.63792  -0.01049   0.00000  -0.00496  -0.00495   2.63297
   R18        2.81484   0.04000   0.00000   0.02081   0.02078   2.83562
   R19        2.06998   0.00471   0.00000   0.00272   0.00272   2.07270
   R20        2.06859  -0.00807   0.00000  -0.00466  -0.00466   2.06394
   R21        2.52097   0.05576   0.00000   0.02836   0.02827   2.54924
   R22        2.77764  -0.01640   0.00000  -0.01053  -0.01047   2.76717
   R23        2.73430  -0.00438   0.00000  -0.00136  -0.00138   2.73292
   R24        2.03314   0.00705   0.00000   0.00395   0.00395   2.03709
   R25        2.53487   0.02886   0.00000   0.01438   0.01443   2.54931
   R26        2.03998   0.00308   0.00000   0.00174   0.00174   2.04172
   R27        2.70111  -0.00207   0.00000  -0.00161  -0.00161   2.69950
   R28        2.03621   0.00215   0.00000   0.00120   0.00120   2.03742
   R29        2.03993   0.00336   0.00000   0.00189   0.00189   2.04182
   R30        2.62615   0.00128   0.00000   0.00027   0.00024   2.62639
   R31        2.04955  -0.00517   0.00000  -0.00293  -0.00293   2.04662
   R32        2.62290   0.01154   0.00000   0.00508   0.00503   2.62793
   R33        2.05223  -0.00402   0.00000  -0.00229  -0.00229   2.04994
   R34        2.63024  -0.01560   0.00000  -0.00790  -0.00792   2.62232
   R35        2.04894  -0.00533   0.00000  -0.00303  -0.00303   2.04591
   R36        2.83260   0.02697   0.00000   0.01301   0.01307   2.84567
   R37        2.77798   0.04636   0.00000   0.02471   0.02468   2.80266
   R38        2.06650   0.00421   0.00000   0.00243   0.00243   2.06892
   R39        2.07021   0.00141   0.00000   0.00081   0.00081   2.07102
   R40        2.75335  -0.01178   0.00000  -0.00682  -0.00685   2.74650
   R41        2.69985   0.00655   0.00000   0.00235   0.00235   2.70220
   R42        2.51030   0.04894   0.00000   0.02491   0.02496   2.53526
   R43        2.03752   0.00327   0.00000   0.00184   0.00184   2.03936
   R44        2.74042  -0.03259   0.00000  -0.01790  -0.01795   2.72247
   R45        2.03869   0.00441   0.00000   0.00248   0.00248   2.04117
   R46        2.53725   0.05074   0.00000   0.02654   0.02661   2.56386
   R47        2.03942   0.00097   0.00000   0.00054   0.00054   2.03996
   R48        2.02803   0.00818   0.00000   0.00456   0.00456   2.03259
    A1        1.57080  -0.02498   0.00000  -0.02113  -0.02107   1.54973
    A2        1.85510  -0.00060   0.00000  -0.00246  -0.00247   1.85264
    A3        1.24400  -0.00484   0.00000  -0.00192  -0.00188   1.24212
    A4        1.10422   0.00345   0.00000   0.00454   0.00454   1.10876
    A5        1.54475   0.01178   0.00000   0.00900   0.00899   1.55374
    A6        2.01344   0.00584   0.00000   0.00476   0.00470   2.01814
    A7        1.93838   0.01897   0.00000   0.01437   0.01437   1.95275
    A8        1.90792   0.00961   0.00000   0.00646   0.00645   1.91437
    A9        1.39715  -0.00043   0.00000   0.00115   0.00119   1.39834
   A10        1.02355   0.01535   0.00000   0.01404   0.01402   1.03757
   A11        1.33862   0.02089   0.00000   0.01686   0.01686   1.35547
   A12        1.43742   0.01778   0.00000   0.01409   0.01422   1.45164
   A13        1.43000   0.02565   0.00000   0.01972   0.01974   1.44975
   A14        1.45077   0.01675   0.00000   0.01255   0.01263   1.46340
   A15        2.03031   0.00686   0.00000   0.00454   0.00458   2.03489
   A16        2.38724   0.01666   0.00000   0.01174   0.01174   2.39899
   A17        2.01765   0.01894   0.00000   0.01505   0.01504   2.03269
   A18        2.22796  -0.01329   0.00000  -0.00918  -0.00925   2.21871
   A19        1.63120  -0.01117   0.00000  -0.00817  -0.00819   1.62301
   A20        1.50016  -0.01923   0.00000  -0.01350  -0.01354   1.48661
   A21        1.92023  -0.02755   0.00000  -0.01863  -0.01866   1.90157
   A22        2.46829  -0.02358   0.00000  -0.01889  -0.01890   2.44939
   A23        1.27636  -0.01661   0.00000  -0.01094  -0.01087   1.26549
   A24        1.88453  -0.01184   0.00000  -0.01101  -0.01097   1.87356
   A25        2.10606  -0.01493   0.00000  -0.01264  -0.01258   2.09348
   A26        1.69852  -0.01821   0.00000  -0.01289  -0.01286   1.68566
   A27        1.20075  -0.01734   0.00000  -0.01280  -0.01274   1.18802
   A28        1.28729  -0.00213   0.00000  -0.00045  -0.00049   1.28680
   A29        1.23851   0.00758   0.00000   0.00680   0.00674   1.24526
   A30        1.72660   0.01681   0.00000   0.01145   0.01137   1.73797
   A31        2.16026   0.00262   0.00000   0.00069   0.00065   2.16091
   A32        1.90506  -0.00530   0.00000  -0.00377  -0.00378   1.90128
   A33        0.99120  -0.00160   0.00000  -0.00392  -0.00391   0.98729
   A34        1.00009  -0.00622   0.00000  -0.00568  -0.00569   0.99440
   A35        2.28472  -0.01220   0.00000  -0.00750  -0.00746   2.27726
   A36        2.51486  -0.00905   0.00000  -0.00416  -0.00415   2.51072
   A37        2.78430   0.01089   0.00000   0.00639   0.00630   2.79060
   A38        2.38120  -0.00095   0.00000  -0.00020  -0.00023   2.38097
   A39        0.97156  -0.00278   0.00000  -0.00379  -0.00380   0.96776
   A40        0.98084  -0.00186   0.00000  -0.00310  -0.00312   0.97772
   A41        2.58922  -0.00298   0.00000  -0.00307  -0.00309   2.58613
   A42        2.60422  -0.00097   0.00000   0.00304   0.00302   2.60724
   A43        2.22552   0.00827   0.00000   0.00899   0.00897   2.23449
   A44        2.17029   0.00602   0.00000   0.00597   0.00595   2.17624
   A45        0.90944   0.00264   0.00000   0.00042   0.00041   0.90985
   A46        2.02374   0.00582   0.00000   0.00415   0.00413   2.02788
   A47        2.59077   0.00275   0.00000   0.00247   0.00244   2.59321
   A48        2.36767  -0.00106   0.00000   0.00115   0.00116   2.36883
   A49        1.79319   0.01232   0.00000   0.01014   0.01012   1.80331
   A50        1.56985   0.01114   0.00000   0.00991   0.00989   1.57974
   A51        1.61779  -0.00028   0.00000   0.00062   0.00063   1.61842
   A52        2.22572  -0.00408   0.00000  -0.00176  -0.00175   2.22398
   A53        2.37349   0.00108   0.00000   0.00049   0.00052   2.37401
   A54        1.84660   0.01233   0.00000   0.00760   0.00760   1.85420
   A55        1.39075   0.00706   0.00000   0.00667   0.00667   1.39742
   A56        1.71324  -0.00320   0.00000  -0.00223  -0.00220   1.71104
   A57        2.18906  -0.00628   0.00000  -0.00392  -0.00387   2.18519
   A58        2.65548   0.00182   0.00000  -0.00060  -0.00056   2.65492
   A59        2.34030   0.00969   0.00000   0.00448   0.00447   2.34478
   A60        1.79329   0.00381   0.00000   0.00330   0.00331   1.79661
   A61        0.94236   0.00494   0.00000   0.00158   0.00160   0.94396
   A62        0.95933   0.00338   0.00000  -0.00076  -0.00074   0.95859
   A63        0.94551  -0.00517   0.00000  -0.00554  -0.00553   0.93998
   A64        1.02757  -0.00791   0.00000  -0.00702  -0.00702   1.02055
   A65        0.98369  -0.00569   0.00000  -0.00600  -0.00596   0.97772
   A66        2.10999  -0.01895   0.00000  -0.00938  -0.00930   2.10070
   A67        2.25213  -0.02389   0.00000  -0.01399  -0.01407   2.23806
   A68        1.90533   0.04151   0.00000   0.02236   0.02233   1.92766
   A69        1.91495   0.01302   0.00000   0.01005   0.01000   1.92495
   A70        2.21331  -0.02835   0.00000  -0.01729  -0.01719   2.19612
   A71        2.09318   0.01245   0.00000   0.00511   0.00507   2.09825
   A72        1.81575   0.00319   0.00000   0.00087   0.00086   1.81661
   A73        1.94747  -0.01586   0.00000  -0.00871  -0.00870   1.93877
   A74        1.91642   0.01831   0.00000   0.01232   0.01233   1.92876
   A75        1.91879   0.00950   0.00000   0.00566   0.00566   1.92444
   A76        1.96449  -0.00940   0.00000  -0.00451  -0.00453   1.95996
   A77        1.90060  -0.00570   0.00000  -0.00547  -0.00545   1.89516
   A78        1.73342   0.02032   0.00000   0.01362   0.01363   1.74704
   A79        2.19270   0.01528   0.00000   0.01216   0.01208   2.20478
   A80        2.21419  -0.01045   0.00000  -0.01032  -0.01023   2.20397
   A81        1.84726  -0.00338   0.00000  -0.00065  -0.00067   1.84658
   A82        1.83027   0.01403   0.00000   0.01129   0.01129   1.84156
   A83        1.89974  -0.00334   0.00000  -0.00168  -0.00164   1.89810
   A84        2.21486   0.00742   0.00000   0.00539   0.00532   2.22018
   A85        2.16087  -0.00289   0.00000  -0.00272  -0.00272   2.15815
   A86        2.12854   0.00324   0.00000   0.00359   0.00353   2.13207
   A87        1.93511  -0.00788   0.00000  -0.00595  -0.00593   1.92918
   A88        2.15424   0.00080   0.00000   0.00250   0.00244   2.15669
   A89        2.19223   0.00736   0.00000   0.00371   0.00374   2.19597
   A90        2.27519  -0.00915   0.00000  -0.00696  -0.00700   2.26820
   A91        1.83768   0.00698   0.00000   0.00555   0.00552   1.84320
   A92        2.23224  -0.00293   0.00000  -0.00180  -0.00177   2.23047
   A93        2.20827  -0.00443   0.00000  -0.00411  -0.00411   2.20417
   A94        2.33931  -0.00259   0.00000  -0.00385  -0.00381   2.33550
   A95        1.89858   0.00805   0.00000   0.00315   0.00312   1.90169
   A96        2.17671  -0.01324   0.00000  -0.00827  -0.00826   2.16845
   A97        2.18896   0.00360   0.00000   0.00364   0.00363   2.19259
   A98        2.06190   0.00229   0.00000   0.00287   0.00288   2.06478
   A99        2.11296  -0.00412   0.00000  -0.00360  -0.00361   2.10936
   A100       2.09867   0.00213   0.00000   0.00098   0.00097   2.09964
   A101       2.07550  -0.00172   0.00000  -0.00111  -0.00116   2.07434
   A102       2.10306   0.00050   0.00000   0.00027   0.00030   2.10335
[...]
 ! D199  D(16,17,21,20)       -178.8434         -DE/DX =    0.0                 !
 ! D200  D(16,17,21,36)         -7.7224         -DE/DX =    0.0                 !
 ! D201  D(18,17,21,20)          1.1975         -DE/DX =    0.0                 !
 ! D202  D(18,17,21,36)        172.3185         -DE/DX =    0.0                 !
 ! D203  D(17,18,19,20)          1.9801         -DE/DX =    0.0                 !
 ! D204  D(17,18,19,34)       -174.0335         -DE/DX =    0.0                 !
 ! D205  D(33,18,19,20)        175.7398         -DE/DX =    0.0                 !
 ! D206  D(33,18,19,34)         -0.2737         -DE/DX =    0.0                 !
 ! D207  D(18,19,20,21)         -1.242          -DE/DX =    0.0                 !
 ! D208  D(18,19,20,35)       -172.656          -DE/DX =    0.0                 !
 ! D209  D(34,19,20,21)        174.7564         -DE/DX =    0.0                 !
 ! D210  D(34,19,20,35)          3.3424         -DE/DX =    0.0                 !
 ! D211  D(19,20,21,17)          0.0241         -DE/DX =    0.0                 !
 ! D212  D(19,20,21,36)       -171.0189         -DE/DX =    0.0                 !
 ! D213  D(35,20,21,17)        171.3995         -DE/DX =    0.0                 !
 ! D214  D(35,20,21,36)          0.3566         -DE/DX =    0.0                 !
 --------------------------------------------------------------------------------
 GradGradGradGradGradGradGradGradGradGradGradGradGradGradGradGradGradGrad

 Largest change from initial coordinates is atom   34       2.437 Angstoms.
 Leave Link  103 at Mon Sep 15 20:26:04 2025, MaxMem=    33554432 cpu:         0.0
 (Enter /appl/g09.shchoi/G09Files/g09/l202.exe)
                          Input orientation:                          
 ---------------------------------------------------------------------
 Center     Atomic      Atomic             Coordinates (Angstroms)
 Number     Number       Type             X           Y           Z
 ---------------------------------------------------------------------
      1         40           0        0.109441   -0.214067   -0.234492
      2         17           0        1.201632   -0.890616   -2.240644
      3         17           0        2.191063   -0.767907    0.752047
      4          7           0        0.022836    0.197272    2.253171
      5          6           0        0.553944    1.319633    2.746077
      6          6           0        0.850248    2.432681    1.773701
      7          6           0        0.279040    2.153884    0.414018
      8          6           0        0.997444    2.037569   -0.800060
      9          6           0        0.061349    1.815577   -1.834712
     10          6           0       -1.221067    1.748823   -1.264388
     11          6           0       -1.094524    1.957684    0.127774
     12          6           0        0.857936    1.466357    4.094630
     13          6           0        0.619741    0.410440    4.956144
     14          6           0        0.099321   -0.761925    4.437893
     15          6           0       -0.179319   -0.834061    3.077840
     16          6           0       -0.698149   -2.114221    2.474309
     17          6           0       -1.107341   -1.931761    1.041843
     18          6           0       -0.571727   -2.600649   -0.084775
     19          6           0       -1.278088   -2.157016   -1.225034
     20          6           0       -2.211610   -1.188774   -0.818307
     21          6           0       -2.112106   -1.043992    0.584213
     22          1           0        0.455267    3.372690    2.176585
     23          1           0        1.939063    2.535621    1.701629
     24          1           0        2.062496    2.200461   -0.929537
     25          1           0        0.288464    1.775142   -2.891322
     26          1           0       -2.150881    1.699521   -1.814949
     27          1           0       -1.908247    2.100898    0.828147
     28          1           0        1.281638    2.391553    4.452687
     29          1           0        0.845992    0.495481    6.008250
     30          1           0       -0.082995   -1.616755    5.070153
     31          1           0       -1.539831   -2.476515    3.076193
     32          1           0        0.099447   -2.863334    2.536895
     33          1           0        0.170103   -3.392402   -0.063871
     34          1           0       -1.166067   -2.548624   -2.226900
     35          1           0       -2.972978   -0.747897   -1.447659
     36          1           0       -2.785422   -0.478531    1.216737
 ---------------------------------------------------------------------
                    Distance matrix (angstroms):
                    1          2          3          4          5
     1  Zr   0.000000
     2  Cl   2.382278   0.000000
     3  Cl   2.369208   3.154399   0.000000
     4  N    2.522928   4.771524   2.808229   0.000000
     5  C    3.381362   5.492913   3.318755   1.335936   0.000000
     6  C    3.403955   5.223288   3.617364   2.431369   1.507377
     7  C    2.461000   4.143355   3.508128   2.697491   2.491996
     8  C    2.485616   3.269748   3.421178   3.695778   3.645162
     9  C    2.585047   2.964542   4.231003   4.396724   4.633814
    10  C    2.585319   3.713380   4.694951   4.040771   4.406665
    11  C    2.509436   4.358274   4.314353   2.977391   3.159124
    12  C    4.703761   6.768246   4.235803   2.387245   1.390157
    13  C    5.252915   7.336560   4.640257   2.776292   2.390682
    14  C    4.704406   6.770119   4.238028   2.387241   2.720627
    15  C    3.382206   5.495135   3.321506   1.335887   2.299161
    16  C    3.405934   5.228495   3.623023   2.431404   3.665099
    17  C    2.461719   4.146090   3.509702   2.697665   4.029373
    18  C    2.486398   3.273650   3.419389   3.694301   4.964823
    19  C    2.584852   2.963822   4.227704   4.396930   5.586874
    20  C    2.584215   3.709739   4.693257   4.043247   5.161901
    21  C    2.508848   4.357086   4.315281   2.980627   4.167517
    22  H    4.335633   6.184235   4.710291   3.205642   2.132862
    23  H    3.828428   5.274886   3.446521   3.073109   2.118502
    24  H    3.182367   3.466245   3.414010   4.278155   4.069610
    25  H    3.323815   2.891975   4.833334   5.387582   5.661999
    26  H    3.356892   4.257860   5.615171   4.850918   5.316329
    27  H    3.249512   5.295090   5.004015   3.063261   3.217330
    28  H    5.489348   7.455180   4.950149   3.352211   2.142678
    29  H    6.325962   8.372097   5.570730   3.855792   3.377321
    30  H    5.490338   7.458237   4.953576   3.352205   3.798604
    31  H    4.335828   6.188656   4.715991   3.204440   4.347829
    32  H    3.833967   5.285008   3.457073   3.074684   4.212783
    33  H    3.183489   3.472942   3.411448   4.275060   5.499675
    34  H    3.323668   2.890532   4.828602   5.387437   6.530877
    35  H    3.355303   4.251654   5.613059   4.854317   5.856730
    36  H    3.249036   5.293382   5.006503   3.068749   4.089455
                    6          7          8          9         10
     6  C    0.000000
     7  C    1.500914   0.000000
     8  C    2.608069   1.415492   0.000000
     9  C    3.744839   2.284431   1.412820   0.000000
    10  C    3.740052   2.287234   2.284900   1.405104   0.000000
    11  C    2.591685   1.416724   2.289888   2.282014   1.413418
    12  C    2.514072   3.788763   4.929882   5.992796   5.755095
    13  C    3.777637   4.877149   5.993671   6.957150   6.623810
    14  C    4.226976   4.972506   6.006659   6.781632   6.368932
    15  C    3.665023   4.029127   4.966804   5.586740   5.158631
    16  C    4.854143   4.839052   5.552827   5.881140   5.401333
    17  C    4.839021   4.359898   4.855750   4.866512   4.344920
    18  C    5.550707   4.855737   4.948434   4.792297   4.553134
    19  C    5.881118   4.867751   4.790950   4.236424   3.906454
    20  C    5.404480   4.346875   4.550566   3.901992   3.132034
    21  C    4.719923   3.996618   4.591463   4.330385   3.465702
    22  H    1.096332   2.150160   3.307101   4.320912   4.157804
    23  H    1.096043   2.135261   2.719034   4.068166   4.404853
    24  H    2.971694   2.233389   1.085189   2.229814   3.331350
    25  H    4.744512   3.326982   2.223713   1.081500   2.219526
    26  H    4.735262   3.328552   3.325091   2.215360   1.081713
    27  H    2.934867   2.226776   3.331382   3.324384   2.230442
    28  H    2.713808   4.168037   5.272325   6.430570   6.273880
    29  H    4.656627   5.862352   6.982411   7.991894   7.663867
    30  H    5.304288   6.002364   6.998630   7.712255   7.262831
    31  H    5.613303   5.642346   6.468389   6.715863   6.065949
    32  H    5.403142   5.450811   5.996709   6.403484   6.120907
    33  H    6.145800   5.567903   5.541756   5.501886   5.459743
    34  H    6.699532   5.583580   5.267810   4.550451   4.404260
    35  H    5.925394   4.739388   4.893103   3.991033   3.055551
    36  H    4.690784   4.118846   4.970745   4.762181   3.682973
                   11         12         13         14         15
    11  C    0.000000
    12  C    4.448533   0.000000
    13  C    5.352179   1.383439   0.000000
    14  C    5.234373   2.378775   1.383424   0.000000
    15  C    4.163451   2.720604   2.390671   1.390176   0.000000
    16  C    4.716327   4.226983   3.777599   2.514026   1.507397
    17  C    3.995430   4.972829   4.877548   3.789157   2.492279
    18  C    4.593135   6.004324   5.991420   4.928056   3.643755
    19  C    4.335267   6.781612   6.957051   5.992686   4.633814
    20  C    3.470323   6.372502   6.627089   5.757624   4.408626
    21  C    3.202166   5.238896   5.356505   4.452058   3.161947
    22  H    2.932869   2.734071   4.065455   4.726019   4.348761
    23  H    3.466075   2.835245   4.104738   4.663218   4.211444
    24  H    3.338207   5.218441   6.318779   6.437321   5.503920
    25  H    3.325796   7.015923   7.972132   7.758214   6.531283
    26  H    2.226368   6.635547   7.428713   7.086619   5.851964
    27  H    1.083133   4.327161   5.127253   5.025570   4.082192
    28  H    4.953711   1.078756   2.148578   3.367865   3.798577
    29  H    6.362675   2.145853   1.079513   2.145835   3.377313
    30  H    6.182791   3.367874   2.148570   1.078760   2.142708
    31  H    5.343556   4.725753   4.066015   2.735117   2.132756
    32  H    5.520112   4.663483   4.103787   2.833675   2.118556
    33  H    5.500857   6.432246   6.313821   5.214432   4.066639
    34  H    5.084921   7.757475   7.971280   7.015196   5.661596
    35  H    3.651130   7.091953   7.433577   6.639198   5.319032
    36  H    3.159132   5.033778   5.135033   4.333347   3.222092
                   16         17         18         19         20
    16  C    0.000000
    17  C    1.500896   0.000000
    18  C    2.607969   1.415472   0.000000
    19  C    3.744769   2.284431   1.412780   0.000000
    20  C    3.740098   2.287268   2.284880   1.405128   0.000000
    21  C    2.591742   1.416725   2.289867   2.282057   1.413479
    22  H    5.614731   5.645049   6.469099   6.719612   6.073595
    23  H    5.401199   5.447329   5.989705   6.398145   6.119581
    24  H    6.150107   5.568614   5.541066   5.498584   5.455939
    25  H    6.700041   5.582041   5.269172   4.548897   4.396880
    26  H    5.920540   4.736712   4.896804   3.997830   3.056016
    27  H    4.684166   4.116971   4.972349   4.768908   3.691175
    28  H    5.304295   6.002676   6.996113   7.712211   7.266697
    29  H    4.656572   5.862782   6.980036   7.991737   7.667302
    30  H    2.713723   4.168428   5.270691   6.430358   6.275996
    31  H    1.096335   2.149974   3.308226   4.321013   4.156524
    32  H    1.096014   2.135263   2.718940   4.067997   4.404829
    33  H    2.971526   2.233370   1.085183   2.229739   3.331322
    34  H    4.744367   3.326958   2.223656   1.081499   2.219569
    35  H    4.735348   3.328626   3.325079   2.215362   1.081729
    36  H    2.934906   2.226750   3.331330   3.324397   2.230495
                   21         22         23         24         25
    21  C    0.000000
    22  H    5.351087   0.000000
    23  H    5.520345   1.768593   0.000000
    24  H    5.499565   3.688537   2.655297   0.000000
    25  H    5.078346   5.316359   4.939433   2.678934   0.000000
    26  H    3.644770   5.052113   5.458299   4.334449   2.667340
    27  H    3.160917   3.003654   3.969099   4.343520   4.331986
    28  H    6.187532   2.612692   2.832187   5.441928   7.436452
    29  H    6.367142   4.807562   4.889168   7.247050   9.008371
    30  H    4.956713   5.792842   5.716458   7.427688   8.661872
    31  H    2.930800   6.245231   6.254090   7.134196   7.551853
    32  H    3.466113   6.256551   5.764596   6.442960   7.142599
    33  H    3.338191   7.132141   6.433325   5.967466   5.891689
    34  H    3.325848   7.555221   7.136156   5.887324   4.609996
    35  H    2.226494   6.470491   6.695346   5.858094   4.368855
    36  H    1.083138   5.123990   5.625032   5.940185   5.603924
                   26         27         28         29         30
    26  H    0.000000
    27  H    2.684387   0.000000
    28  H    7.179440   4.837058   0.000000
    29  H    8.463652   6.082488   2.490915   0.000000
    30  H    7.916973   5.928499   4.279021   2.490900   0.000000
    31  H    6.460335   5.112939   5.792539   4.808520   2.614849
    32  H    6.694937   5.620877   5.716789   4.887665   2.829247
    33  H    5.863525   5.940671   7.422193   7.241762   5.438307
    34  H    4.380217   5.612682   8.661033   9.007367   7.435617
    35  H    2.607796   3.798497   7.922877   8.468831   7.182534
    36  H    3.786512   2.752070   5.937148   6.090522   4.842259
                   31         32         33         34         35
    31  H    0.000000
    32  H    1.768532   0.000000
    33  H    3.690899   2.654975   0.000000
    34  H    5.316738   4.939060   2.678807   0.000000
    35  H    5.050472   5.458163   4.334424   2.667351   0.000000
    36  H    3.000169   3.968951   4.343470   4.332001   2.684538
                   36
    36  H    0.000000
 Stoichiometry    C17H15Cl2NZr
 Framework group  C1[X(C17H15Cl2NZr)]
 Deg. of freedom   102
 Full point group                 C1      NOp   1
 RotChk:  IX=2 Diff= 1.69D-15
 Largest Abelian subgroup         C1      NOp   1
 Largest concise Abelian subgroup C1      NOp   1
                         Standard orientation:                         
 ---------------------------------------------------------------------
 Center     Atomic      Atomic             Coordinates (Angstroms)
 Number     Number       Type             X           Y           Z
 ---------------------------------------------------------------------
      1         40           0        0.830768   -0.000026   -0.089195
      2         17           0        2.797519   -0.002270   -1.433491
      3         17           0       -0.264858   -0.001438   -2.189849
      4          7           0       -1.670418    0.000055    0.241313
      5          6           0       -2.341562   -1.149710    0.130260
      6          6           0       -1.541948   -2.426886    0.170567
      7          6           0       -0.112607   -2.179546    0.555988
      8          6           0        1.036922   -2.473842   -0.215757
      9          6           0        2.170948   -2.116856    0.547529
     10          6           0        1.730791   -1.564190    1.762082
     11          6           0        0.317880   -1.599838    1.774892
     12          6           0       -3.719819   -1.189869   -0.046744
     13          6           0       -4.422002   -0.000669   -0.128262
     14          6           0       -3.720706    1.188904   -0.044835
     15          6           0       -2.342406    1.149451    0.132144
     16          6           0       -1.543884    2.427255    0.174858
     17          6           0       -0.113101    2.180352    0.555104
     18          6           0        1.033418    2.474587   -0.221093
     19          6           0        2.170461    2.119558    0.538534
     20          6           0        1.735138    1.567834    1.755283
     21          6           0        0.322192    1.602325    1.773100
     22          1           0       -2.018568   -3.124065    0.869652
     23          1           0       -1.581273   -2.880162   -0.826581
     24          1           0        1.049218   -2.983996   -1.173476
     25          1           0        3.199879   -2.303275    0.271502
     26          1           0        2.364781   -1.301362    2.598192
     27          1           0       -0.318509   -1.374338    2.621848
     28          1           0       -4.224085   -2.140111   -0.127188
     29          1           0       -5.492731   -0.000950   -0.265692
     30          1           0       -4.225672    2.138908   -0.123744
     31          1           0       -2.019123    3.121161    0.878131
     32          1           0       -1.586807    2.884428   -0.820329
     33          1           0        1.041892    2.983463   -1.179527
     34          1           0        3.198211    2.306703    0.258628
     35          1           0        2.372424    1.306408    2.589346
     36          1           0       -0.310958    1.377722    2.622725
 ---------------------------------------------------------------------
 Rotational constants (GHZ):      0.4148574      0.2659396      0.2258814
 Leave Link  202 at Mon Sep 15 20:26:04 2025, MaxMem=    33554432 cpu:         0.0
 (Enter /appl/g09.shchoi/G09Files/g09/l601.exe)
 Leave Link  601 at Mon Sep 15 20:26:04 2025, MaxMem=    33554432 cpu:         0.0
 (Enter /appl/g09.shchoi/G09Files/g09/l9999.exe)
 1\1\GINC-MASTER\FOpt\RExternal='/home/rxn_grp/programs/xtb-gaussian'\Z
 DO\C17H15Cl2N1Zr1\RXN_GRP\15-Sep-2025\0\\#p external='/home/rxn_grp/pr
 ograms/xtb-gaussian' /sdd opt(nomicro)\\R\\0,1\Zr,0.1094406964,-0.2140
 672834,-0.234491799\Cl,1.2016317624,-0.8906163777,-2.2406444629\Cl,2.1
 910628173,-0.767906935,0.7520469429\N,0.0228364874,0.1972720485,2.2531
 712841\C,0.553944205,1.3196331755,2.7460766378\C,0.8502476005,2.432680
 9809,1.7737005786\C,0.2790396615,2.153884212,0.4140179831\C,0.99744397
 06,2.0375694729,-0.8000596817\C,0.0613487426,1.8155765222,-1.834711644
 \C,-1.2210671856,1.7488229938,-1.2643875501\C,-1.0945237625,1.95768357
 53,0.127774436\C,0.8579363606,1.466356975,4.0946303584\C,0.6197406751,
 0.4104400201,4.9561441879\C,0.099321065,-0.7619254044,4.4378932532\C,-
 0.1793194448,-0.8340614173,3.0778402406\C,-0.6981493946,-2.1142214039,
 2.4743085349\C,-1.1073413057,-1.9317605495,1.0418426082\C,-0.571726864
 5,-2.600648783,-0.0847750425\C,-1.2780879757,-2.1570161401,-1.22503443
 96\C,-2.2116097584,-1.188773733,-0.8183066948\C,-2.1121056542,-1.04399
 21283,0.5842127541\H,0.4552666366,3.3726902496,2.1765852494\H,1.939062
 9653,2.5356207264,1.7016286938\H,2.0624961122,2.2004612778,-0.92953697
 7\H,0.2884642542,1.775141612,-2.8913221582\H,-2.1508812163,1.699521182
 6,-1.8149491223\H,-1.9082465717,2.1008976004,0.8281468498\H,1.28163838
 28,2.3915527915,4.4526865761\H,0.8459917074,0.4954806016,6.008250024\H
 ,-0.0829948211,-1.6167547141,5.0701526333\H,-1.5398313983,-2.476514852
 5,3.076193448\H,0.0994473813,-2.863334242,2.5368949517\H,0.1701028694,
 -3.3924022703,-0.0638714299\H,-1.1660670589,-2.5486240856,-2.226900266
 7\H,-2.9729781835,-0.747897149,-1.4476591357\H,-2.7854217551,-0.478531
 1493,1.2167371414\\Version=ES64L-G09RevD.01\HF=-57.9163336\RMSD=0.000e
 +00\RMSF=5.829e-06\Dipole=-1.8270532,1.0412815,2.7601744\PG=C01 [X(C17
 H15Cl2N1Zr1)]\\@


 THE MOLECULE ALSO HAS A BODY.  WHEN THIS BODY IS HIT, THE MOLECULE
 FEELS HURT ALL OVER -- A. KITAIGORODSKI
 Job cpu time:       0 days  0 hours  0 minutes  3.6 seconds.
 File lengths (MBytes):  RWF=     10 Int=      0 D2E=      0 Chk=      4 Scr=      1
 Normal termination of Gaussian 09 at Mon Sep 15 20:26:04 2025.
