 Entering Gaussian System, Link 0=g09
 Input=final_relax_1.com
 Output=final_relax_1.log
 Initial command:
 /appl/g09.shchoi/G09Files/g09/l1.exe "/home/rxn_grp/scratch/metallogen_test/Gau-3425591.inp" -scrdir="/home/rxn_grp/scratch/metallogen_test/"
 Entering Link 1 = /appl/g09.shchoi/G09Files/g09/l1.exe PID=   3425603.
  
 Copyright (c) 1988,1990,1992,1993,1995,1998,2003,2009,2013,
            Gaussian, Inc.  All Rights Reserved.
  
 This is part of the Gaussian(R) 09 program.  It is based on
 the Gaussian(R) 03 system (copyright 2003, Gaussian, Inc.),
 the Gaussian(R) 98 system (copyright 1998, Gaussian, Inc.),
 the Gaussian(R) 94 system (copyright 1995, Gaussian, Inc.),
 the Gaussian 92(TM) system (copyright 1992, Gaussian, Inc.),
 the Gaussian 90(TM) system (copyright 1990, Gaussian, Inc.),
 the Gaussian 88(TM) system (copyright 1988, Gaussian, Inc.),
 the Gaussian 86(TM) system (copyright 1986, Carnegie Mellon
 University), and the Gaussian 82(TM) system (copyright 1983,
 Carnegie Mellon University). Gaussian is a federally registered
 trademark of Gaussian, Inc.
  
 This software contains proprietary and confidential information,
 including trade secrets, belonging to Gaussian, Inc.
  
 This software is provided under written license and may be
 used, copied, transmitted, or stored only in accord with that
 written license.
  
 The following legend is applicable only to US Government
 contracts under FAR:
  
                    RESTRICTED RIGHTS LEGEND
  
 Use, reproduction and disclosure by the US Government is
 subject to restrictions as set forth in subparagraphs (a)
 and (c) of the Commercial Computer Software - Restricted
 Rights clause in FAR 52.227-19.
  
 Gaussian, Inc.
 340 Quinnipiac St., Bldg. 40, Wallingford CT 06492
  
  
 ---------------------------------------------------------------
 Warning -- This program may not be used in any manner that
 competes with the business of Gaussian, Inc. or will provide
 assistance to any competitor of Gaussian, Inc.  The licensee
 of this program is prohibited from giving any competitor of
 Gaussian, Inc. access to this program.  By using this program,
 the user acknowledges that Gaussian, Inc. is engaged in the
 business of creating and licensing software in the field of
 computational chemistry and represents and warrants to the
 licensee that it is not a competitor of Gaussian, Inc. and that
 it will not use this program in any manner prohibited above.
 ---------------------------------------------------------------
  

 Cite this work as:
 Gaussian 09, Revision D.01,
 M. J. Frisch, G. W. Trucks, H. B. Schlegel, G. E. Scuseria, 
 M. A. Robb, J. R. Cheeseman, G. Scalmani, V. Barone, B. Mennucci, 
 G. A. Petersson, H. Nakatsuji, M. Caricato, X. Li, H. P. Hratchian, 
 A. F. Izmaylov, J. Bloino, G. Zheng, J. L. Sonnenberg, M. Hada, 
 M. Ehara, K. Toyota, R. Fukuda, J. Hasegawa, M. Ishida, T. Nakajima, 
 Y. Honda, O. Kitao, H. Nakai, T. Vreven, J. A. Montgomery, Jr., 
 J. E. Peralta, F. Ogliaro, M. Bearpark, J. J. Heyd, E. Brothers, 
 K. N. Kudin, V. N. Staroverov, T. Keith, R. Kobayashi, J. Normand, 
 K. Raghavachari, A. Rendell, J. C. Burant, S. S. Iyengar, J. Tomasi, 
 M. Cossi, N. Rega, J. M. Millam, M. Klene, J. E. Knox, J. B. Cross, 
 V. Bakken, C. Adamo, J. Jaramillo, R. Gomperts, R. E. Stratmann, 
 O. Yazyev, A. J. Austin, R. Cammi, C. Pomelli, J. W. Ochterski, 
 R. L. Martin, K. Morokuma, V. G. Zakrzewski, G. A. Voth, 
 P. Salvador, J. J. Dannenberg, S. Dapprich, A. D. Daniels, 
 O. Farkas, J. B. Foresman, J. V. Ortiz, J. Cioslowski, 
 and D. J. Fox, Gaussian, Inc., Wallingford CT, 2013.
 
 ******************************************
 Gaussian 09:  ES64L-G09RevD.01 24-Apr-2013
                15-Sep-2025 
 ******************************************
 -------------------------------------------------------------------
 #p external='/home/rxn_grp/programs/xtb-gaussian' /sdd opt(nomicro)
 -------------------------------------------------------------------
 1/14=-1,18=20,19=15,26=1,38=1/1,3;
 2/9=110,12=2,17=6,18=5,40=1/2;
 3/5=17,6=7,11=9,16=1,25=1,30=1,41=9900000,43=2,71=1/1;
 4/20=17,22=1,24=3,113=1,114=1/2;
 6/7=2,8=2,9=2,10=2/1;
 7/44=-1/16;
 1/14=-1,18=20,19=15,26=1/3(2);
 2/9=110/2;
 99//99;
 2/9=110/2;
 3/5=17,6=7,11=9,16=1,25=1,30=1,41=9900000,43=2,71=1/1;
 4/16=2,20=17,22=1,24=3,113=1,114=1/2;
 7/44=-1/16;
 1/14=-1,18=20,19=15,26=1/3(-4);
 2/9=110/2;
 6/7=2,8=2,9=2,10=2/1;
 99//99;
 Leave Link    1 at Mon Sep 15 20:02:37 2025, MaxMem=           0 cpu:         0.0
 (Enter /appl/g09.shchoi/G09Files/g09/l101.exe)
 -
 R
 -
 Symbolic Z-matrix:
 Charge =  0 Multiplicity = 2
 Cu                    0.        0.        0. 
 Cl                   -5.05887  -2.42826  -4.1027 
 O                     0.06811   1.41765   0.00845 
 N                    -1.45489  -0.05625   0.00337 
 N                    -1.9983    4.60406  -1.40285 
 C                    -2.1666   -0.71989  -0.9618 
 C                    -2.18547   0.46893   0.94748 
 H                    -3.21544   0.16783   1.20887 
 C                    -0.49576   3.72783   0.1917 
 H                     0.35234   3.92512  -0.4539 
 C                    -0.60558   2.29087   0.561 
 C                    -1.70665   4.27072  -0.06661 
 C                    -1.77911   1.83461   1.33924 
 C                    -3.98219  -1.8627   -2.89107 
 C                    -4.04562  -2.30545  -1.62294 
 H                    -4.74602  -3.06874  -1.30958 
 C                    -2.99425  -0.8594   -3.2409 
 H                    -3.04345  -0.37075  -4.20844 
 C                    -2.79513   2.67422   1.59741 
 H                    -3.75297   2.32794   1.97518 
 C                    -2.8278    3.89028   0.79699 
 H                    -3.81801   4.10333   0.39517 
 C                    -3.15336  -1.73446  -0.62332 
 H                    -3.25591  -2.05492   0.40504 
 C                    -2.05893  -0.34613  -2.25386 
 H                    -1.3327    0.39871  -2.55734 
 C                    -2.89096   5.70615  -1.79998 
 H                    -3.93162   5.45892  -1.5602 
 H                    -2.83426   5.80375  -2.89215 
 C                    -2.19283   3.41728  -2.29624 
 H                    -3.10735   3.53063  -2.88808 
 H                    -2.35397   2.50987  -1.70191 
 C                    -2.51225   7.04797  -1.20607 
 H                    -3.15369   7.27536  -0.34914 
 H                    -2.6803    7.83686  -1.94852 
 H                    -1.46799   7.09876  -0.88759 
 C                    -1.00164   3.20576  -3.2084 
 H                    -0.19009   2.69453  -2.67971 
 H                    -1.29473   2.56855  -4.04874 
 H                    -0.61243   4.14844  -3.60014 
 Cl                    5.09786   1.4072   -4.52273 
 O                    -0.06202  -1.38461   0.00334 
 N                     1.42009   0.04876  -0.01401 
 N                    -0.47922  -3.43328   3.97669 
 C                     2.14476   0.41614  -1.15072 
 C                     2.29478  -0.58264   0.76324 
 H                     3.38562  -0.41614   0.81965 
 C                    -0.35637  -3.17442   1.60806 
 H                    -1.42346  -3.09379   1.4577 
 C                     0.41382  -2.13191   0.88774 
 C                     0.20717  -3.58074   2.76333 
 C                     1.77643  -1.79948   1.36881 
 C                     3.97036   1.12224  -3.25891 
 C                     3.75138   2.02169  -2.28168 
 H                     4.25419   2.97979  -2.25631 
 C                     3.25225  -0.13838  -3.23794 
 H                     3.50336  -0.91604  -3.95163 
 C                     2.43941  -2.58611   2.22136 
 H                     3.44821  -2.39123   2.56312 
 C                     1.66212  -3.62746   2.84325 
 H                     2.10571  -4.2016    3.65183 
 C                     2.80973   1.703    -1.21403 
 H                     2.58992   2.43898  -0.45211 
 C                     2.33429  -0.46245  -2.16124 
 H                     1.87828  -1.44759  -2.1424 
 C                    -1.62412  -4.3329    4.25134 
 H                    -1.95395  -4.81985   3.32497 
 H                    -1.26462  -5.13017   4.91117 
 C                    -0.57703  -2.02597   4.48109 
 H                    -1.00592  -1.38007   3.70137 
 H                    -1.23173  -1.9522    5.34737 
 C                    -2.83877  -3.67467   4.88799 
 H                    -3.67428  -4.37782   4.93073 
 H                    -2.62652  -3.36929   5.91861 
 H                    -3.16612  -2.79647   4.32058 
 C                     0.76534  -1.46144   4.93063 
 H                     1.28123  -0.96054   4.10639 
 H                     0.6108   -0.69922   5.6997 
 H                     1.42031  -2.23416   5.34321 
 
 NAtoms=     79 NQM=       79 NQMF=       0 NMMI=      0 NMMIF=      0
                NMic=       0 NMicF=      0.
                    Isotopes and Nuclear Properties:
 (Nuclear quadrupole moments (NQMom) in fm**2, nuclear magnetic moments (NMagM)
  in nuclear magnetons)

  Atom         1           2           3           4           5           6           7           8           9          10
 IAtWgt=          63          35          16          14          14          12          12           1          12           1
 AtmWgt=  62.9295992  34.9688527  15.9949146  14.0030740  14.0030740  12.0000000  12.0000000   1.0078250  12.0000000   1.0078250
 NucSpn=           3           3           0           2           2           0           0           1           0           1
 AtZEff=   0.0000000   0.0000000   0.0000000   0.0000000   0.0000000   0.0000000   0.0000000   0.0000000   0.0000000   0.0000000
 NQMom=  -22.0000000  -8.1650000   0.0000000   2.0440000   2.0440000   0.0000000   0.0000000   0.0000000   0.0000000   0.0000000
 NMagM=    2.2233000   0.8218740   0.0000000   0.4037610   0.4037610   0.0000000   0.0000000   2.7928460   0.0000000   2.7928460
 AtZNuc=  29.0000000  17.0000000   8.0000000   7.0000000   7.0000000   6.0000000   6.0000000   1.0000000   6.0000000   1.0000000

  Atom        11          12          13          14          15          16          17          18          19          20
 IAtWgt=          12          12          12          12          12           1          12           1          12           1
 AtmWgt=  12.0000000  12.0000000  12.0000000  12.0000000  12.0000000   1.0078250  12.0000000   1.0078250  12.0000000   1.0078250
 NucSpn=           0           0           0           0           0           1           0           1           0           1
 AtZEff=   0.0000000   0.0000000   0.0000000   0.0000000   0.0000000   0.0000000   0.0000000   0.0000000   0.0000000   0.0000000
 NQMom=    0.0000000   0.0000000   0.0000000   0.0000000   0.0000000   0.0000000   0.0000000   0.0000000   0.0000000   0.0000000
 NMagM=    0.0000000   0.0000000   0.0000000   0.0000000   0.0000000   2.7928460   0.0000000   2.7928460   0.0000000   2.7928460
 AtZNuc=   6.0000000   6.0000000   6.0000000   6.0000000   6.0000000   1.0000000   6.0000000   1.0000000   6.0000000   1.0000000

  Atom        21          22          23          24          25          26          27          28          29          30
 IAtWgt=          12           1          12           1          12           1          12           1           1          12
 AtmWgt=  12.0000000   1.0078250  12.0000000   1.0078250  12.0000000   1.0078250  12.0000000   1.0078250   1.0078250  12.0000000
 NucSpn=           0           1           0           1           0           1           0           1           1           0
 AtZEff=   0.0000000   0.0000000   0.0000000   0.0000000   0.0000000   0.0000000   0.0000000   0.0000000   0.0000000   0.0000000
 NQMom=    0.0000000   0.0000000   0.0000000   0.0000000   0.0000000   0.0000000   0.0000000   0.0000000   0.0000000   0.0000000
 NMagM=    0.0000000   2.7928460   0.0000000   2.7928460   0.0000000   2.7928460   0.0000000   2.7928460   2.7928460   0.0000000
 AtZNuc=   6.0000000   1.0000000   6.0000000   1.0000000   6.0000000   1.0000000   6.0000000   1.0000000   1.0000000   6.0000000

  Atom        31          32          33          34          35          36          37          38          39          40
 IAtWgt=           1           1          12           1           1           1          12           1           1           1
 AtmWgt=   1.0078250   1.0078250  12.0000000   1.0078250   1.0078250   1.0078250  12.0000000   1.0078250   1.0078250   1.0078250
 NucSpn=           1           1           0           1           1           1           0           1           1           1
 AtZEff=   0.0000000   0.0000000   0.0000000   0.0000000   0.0000000   0.0000000   0.0000000   0.0000000   0.0000000   0.0000000
 NQMom=    0.0000000   0.0000000   0.0000000   0.0000000   0.0000000   0.0000000   0.0000000   0.0000000   0.0000000   0.0000000
 NMagM=    2.7928460   2.7928460   0.0000000   2.7928460   2.7928460   2.7928460   0.0000000   2.7928460   2.7928460   2.7928460
 AtZNuc=   1.0000000   1.0000000   6.0000000   1.0000000   1.0000000   1.0000000   6.0000000   1.0000000   1.0000000   1.0000000

  Atom        41          42          43          44          45          46          47          48          49          50
 IAtWgt=          35          16          14          14          12          12           1          12           1          12
 AtmWgt=  34.9688527  15.9949146  14.0030740  14.0030740  12.0000000  12.0000000   1.0078250  12.0000000   1.0078250  12.0000000
 NucSpn=           3           0           2           2           0           0           1           0           1           0
 AtZEff=   0.0000000   0.0000000   0.0000000   0.0000000   0.0000000   0.0000000   0.0000000   0.0000000   0.0000000   0.0000000
 NQMom=   -8.1650000   0.0000000   2.0440000   2.0440000   0.0000000   0.0000000   0.0000000   0.0000000   0.0000000   0.0000000
 NMagM=    0.8218740   0.0000000   0.4037610   0.4037610   0.0000000   0.0000000   2.7928460   0.0000000   2.7928460   0.0000000
 AtZNuc=  17.0000000   8.0000000   7.0000000   7.0000000   6.0000000   6.0000000   1.0000000   6.0000000   1.0000000   6.0000000

  Atom        51          52          53          54          55          56          57          58          59          60
 IAtWgt=          12          12          12          12           1          12           1          12           1          12
 AtmWgt=  12.0000000  12.0000000  12.0000000  12.0000000   1.0078250  12.0000000   1.0078250  12.0000000   1.0078250  12.0000000
 NucSpn=           0           0           0           0           1           0           1           0           1           0
 AtZEff=   0.0000000   0.0000000   0.0000000   0.0000000   0.0000000   0.0000000   0.0000000   0.0000000   0.0000000   0.0000000
 NQMom=    0.0000000   0.0000000   0.0000000   0.0000000   0.0000000   0.0000000   0.0000000   0.0000000   0.0000000   0.0000000
 NMagM=    0.0000000   0.0000000   0.0000000   0.0000000   2.7928460   0.0000000   2.7928460   0.0000000   2.7928460   0.0000000
 AtZNuc=   6.0000000   6.0000000   6.0000000   6.0000000   1.0000000   6.0000000   1.0000000   6.0000000   1.0000000   6.0000000

  Atom        61          62          63          64          65          66          67          68          69          70
 IAtWgt=           1          12           1          12           1          12           1           1          12           1
 AtmWgt=   1.0078250  12.0000000   1.0078250  12.0000000   1.0078250  12.0000000   1.0078250   1.0078250  12.0000000   1.0078250
 NucSpn=           1           0           1           0           1           0           1           1           0           1
 AtZEff=   0.0000000   0.0000000   0.0000000   0.0000000   0.0000000   0.0000000   0.0000000   0.0000000   0.0000000   0.0000000
 NQMom=    0.0000000   0.0000000   0.0000000   0.0000000   0.0000000   0.0000000   0.0000000   0.0000000   0.0000000   0.0000000
 NMagM=    2.7928460   0.0000000   2.7928460   0.0000000   2.7928460   0.0000000   2.7928460   2.7928460   0.0000000   2.7928460
 AtZNuc=   1.0000000   6.0000000   1.0000000   6.0000000   1.0000000   6.0000000   1.0000000   1.0000000   6.0000000   1.0000000

  Atom        71          72          73          74          75          76          77          78          79
 IAtWgt=           1          12           1           1           1          12           1           1           1
 AtmWgt=   1.0078250  12.0000000   1.0078250   1.0078250   1.0078250  12.0000000   1.0078250   1.0078250   1.0078250
 NucSpn=           1           0           1           1           1           0           1           1           1
 AtZEff=   0.0000000   0.0000000   0.0000000   0.0000000   0.0000000   0.0000000   0.0000000   0.0000000   0.0000000
 NQMom=    0.0000000   0.0000000   0.0000000   0.0000000   0.0000000   0.0000000   0.0000000   0.0000000   0.0000000
 NMagM=    2.7928460   0.0000000   2.7928460   2.7928460   2.7928460   0.0000000   2.7928460   2.7928460   2.7928460
 AtZNuc=   1.0000000   6.0000000   1.0000000   1.0000000   1.0000000   6.0000000   1.0000000   1.0000000   1.0000000
 Leave Link  101 at Mon Sep 15 20:02:37 2025, MaxMem=    33554432 cpu:         0.1
 (Enter /appl/g09.shchoi/G09Files/g09/l103.exe)

 GradGradGradGradGradGradGradGradGradGradGradGradGradGradGradGradGradGrad
 Berny optimization.
 Initialization pass.
                           ----------------------------
                           !    Initial Parameters    !
                           ! (Angstroms and Degrees)  !
 --------------------------                            --------------------------
 ! Name  Definition              Value          Derivative Info.                !
 --------------------------------------------------------------------------------
 ! R1    R(1,3)                  1.4193         estimate D2E/DX2                !
 ! R2    R(1,4)                  1.456          estimate D2E/DX2                !
 ! R3    R(1,42)                 1.386          estimate D2E/DX2                !
 ! R4    R(1,43)                 1.421          estimate D2E/DX2                !
 ! R5    R(2,14)                 1.7167         estimate D2E/DX2                !
 ! R6    R(3,11)                 1.2336         estimate D2E/DX2                !
 ! R7    R(4,6)                  1.3706         estimate D2E/DX2                !
 ! R8    R(4,7)                  1.3042         estimate D2E/DX2                !
 ! R9    R(5,12)                 1.4077         estimate D2E/DX2                !
 ! R10   R(5,27)                 1.4728         estimate D2E/DX2                !
 ! R11   R(5,30)                 1.4981         estimate D2E/DX2                !
 ! R12   R(6,23)                 1.4552         estimate D2E/DX2                !
 ! R13   R(6,25)                 1.3493         estimate D2E/DX2                !
 ! R14   R(7,8)                  1.1045         estimate D2E/DX2                !
 ! R15   R(7,13)                 1.4777         estimate D2E/DX2                !
 ! R16   R(9,10)                 1.084          estimate D2E/DX2                !
 ! R17   R(9,11)                 1.4877         estimate D2E/DX2                !
 ! R18   R(9,12)                 1.3519         estimate D2E/DX2                !
 ! R19   R(11,13)                1.4802         estimate D2E/DX2                !
 ! R20   R(12,21)                1.4654         estimate D2E/DX2                !
 ! R21   R(13,19)                1.3431         estimate D2E/DX2                !
 ! R22   R(14,15)                1.3447         estimate D2E/DX2                !
 ! R23   R(14,17)                1.4509         estimate D2E/DX2                !
 ! R24   R(15,16)                1.0823         estimate D2E/DX2                !
 ! R25   R(15,23)                1.4565         estimate D2E/DX2                !
 ! R26   R(17,18)                1.085          estimate D2E/DX2                !
 ! R27   R(17,25)                1.4534         estimate D2E/DX2                !
 ! R28   R(19,20)                1.0863         estimate D2E/DX2                !
 ! R29   R(19,21)                1.4562         estimate D2E/DX2                !
 ! R30   R(21,22)                1.0897         estimate D2E/DX2                !
 ! R31   R(23,24)                1.082          estimate D2E/DX2                !
 ! R32   R(25,26)                1.0836         estimate D2E/DX2                !
 ! R33   R(27,28)                1.0962         estimate D2E/DX2                !
 ! R34   R(27,29)                1.098          estimate D2E/DX2                !
 ! R35   R(27,33)                1.5155         estimate D2E/DX2                !
 ! R36   R(30,31)                1.0952         estimate D2E/DX2                !
 ! R37   R(30,32)                1.0966         estimate D2E/DX2                !
 ! R38   R(30,37)                1.5152         estimate D2E/DX2                !
 ! R39   R(33,34)                1.0943         estimate D2E/DX2                !
 ! R40   R(33,35)                1.0963         estimate D2E/DX2                !
 ! R41   R(33,36)                1.0929         estimate D2E/DX2                !
 ! R42   R(37,38)                1.0952         estimate D2E/DX2                !
 ! R43   R(37,39)                1.0946         estimate D2E/DX2                !
 ! R44   R(37,40)                1.0925         estimate D2E/DX2                !
 ! R45   R(41,53)                1.7175         estimate D2E/DX2                !
 ! R46   R(42,50)                1.2518         estimate D2E/DX2                !
 ! R47   R(43,45)                1.3972         estimate D2E/DX2                !
 ! R48   R(43,46)                1.3296         estimate D2E/DX2                !
 ! R49   R(44,51)                1.4018         estimate D2E/DX2                !
 ! R50   R(44,66)                1.4817         estimate D2E/DX2                !
 ! R51   R(44,69)                1.4982         estimate D2E/DX2                !
 ! R52   R(45,62)                1.4499         estimate D2E/DX2                !
 ! R53   R(45,64)                1.3524         estimate D2E/DX2                !
 ! R54   R(46,47)                1.1049         estimate D2E/DX2                !
 ! R55   R(46,52)                1.4547         estimate D2E/DX2                !
 ! R56   R(48,49)                1.0806         estimate D2E/DX2                !
 ! R57   R(48,50)                1.4829         estimate D2E/DX2                !
 ! R58   R(48,51)                1.3481         estimate D2E/DX2                !
 ! R59   R(50,52)                1.4828         estimate D2E/DX2                !
 ! R60   R(51,60)                1.4579         estimate D2E/DX2                !
 ! R61   R(52,58)                1.3361         estimate D2E/DX2                !
 ! R62   R(53,54)                1.3461         estimate D2E/DX2                !
 ! R63   R(53,56)                1.451          estimate D2E/DX2                !
 ! R64   R(54,55)                1.0823         estimate D2E/DX2                !
 ! R65   R(54,62)                1.4588         estimate D2E/DX2                !
 ! R66   R(56,57)                1.085          estimate D2E/DX2                !
 ! R67   R(56,64)                1.4515         estimate D2E/DX2                !
 ! R68   R(58,59)                1.0828         estimate D2E/DX2                !
 ! R69   R(58,60)                1.4406         estimate D2E/DX2                !
 ! R70   R(60,61)                1.0864         estimate D2E/DX2                !
 ! R71   R(62,63)                1.0819         estimate D2E/DX2                !
 ! R72   R(64,65)                1.0857         estimate D2E/DX2                !
 ! R73   R(66,67)                1.0973         estimate D2E/DX2                !
 ! R74   R(66,68)                1.0956         estimate D2E/DX2                !
 ! R75   R(66,72)                1.5212         estimate D2E/DX2                !
 ! R76   R(69,70)                1.0996         estimate D2E/DX2                !
 ! R77   R(69,71)                1.0884         estimate D2E/DX2                !
 ! R78   R(69,76)                1.524          estimate D2E/DX2                !
 ! R79   R(72,73)                1.0928         estimate D2E/DX2                !
 ! R80   R(72,74)                1.0957         estimate D2E/DX2                !
 ! R81   R(72,75)                1.0956         estimate D2E/DX2                !
 ! R82   R(76,77)                1.0938         estimate D2E/DX2                !
 ! R83   R(76,78)                1.0938         estimate D2E/DX2                !
 ! R84   R(76,79)                1.0938         estimate D2E/DX2                !
 ! A1    A(3,1,4)               94.964          estimate D2E/DX2                !
 ! A2    A(3,1,43)              85.2866         estimate D2E/DX2                !
 ! A3    A(4,1,42)              85.2208         estimate D2E/DX2                !
 ! A4    A(42,1,43)             94.5322         estimate D2E/DX2                !
 ! A5    A(1,3,11)             133.1188         estimate D2E/DX2                !
 ! A6    A(1,4,6)              122.4089         estimate D2E/DX2                !
 ! A7    A(1,4,7)              123.0847         estimate D2E/DX2                !
 ! A8    A(6,4,7)              114.4487         estimate D2E/DX2                !
 ! A9    A(12,5,27)            123.9664         estimate D2E/DX2                !
 ! A10   A(12,5,30)            113.9145         estimate D2E/DX2                !
 ! A11   A(27,5,30)            110.6879         estimate D2E/DX2                !
 ! A12   A(4,6,23)             121.7286         estimate D2E/DX2                !
 ! A13   A(4,6,25)             119.918          estimate D2E/DX2                !
 ! A14   A(23,6,25)            118.0316         estimate D2E/DX2                !
 ! A15   A(4,7,8)              125.728          estimate D2E/DX2                !
 ! A16   A(4,7,13)             114.2069         estimate D2E/DX2                !
 ! A17   A(8,7,13)             116.4652         estimate D2E/DX2                !
 ! A18   A(10,9,11)            112.4206         estimate D2E/DX2                !
 ! A19   A(10,9,12)            120.9234         estimate D2E/DX2                !
 ! A20   A(11,9,12)            111.6648         estimate D2E/DX2                !
 ! A21   A(3,11,9)             122.156          estimate D2E/DX2                !
 ! A22   A(3,11,13)            116.7625         estimate D2E/DX2                !
 ! A23   A(9,11,13)            119.128          estimate D2E/DX2                !
 ! A24   A(5,12,9)             117.5171         estimate D2E/DX2                !
 ! A25   A(5,12,21)            117.5393         estimate D2E/DX2                !
 ! A26   A(9,12,21)            117.93           estimate D2E/DX2                !
 ! A27   A(7,13,11)            111.3149         estimate D2E/DX2                !
 ! A28   A(7,13,19)            114.8769         estimate D2E/DX2                !
 ! A29   A(11,13,19)           120.539          estimate D2E/DX2                !
 ! A30   A(2,14,15)            121.8389         estimate D2E/DX2                !
 ! A31   A(2,14,17)            118.9928         estimate D2E/DX2                !
 ! A32   A(15,14,17)           119.1567         estimate D2E/DX2                !
 ! A33   A(14,15,16)           122.3973         estimate D2E/DX2                !
 ! A34   A(14,15,23)           119.2917         estimate D2E/DX2                !
 ! A35   A(16,15,23)           118.308          estimate D2E/DX2                !
 ! A36   A(14,17,18)           119.7066         estimate D2E/DX2                !
 ! A37   A(14,17,25)           121.2416         estimate D2E/DX2                !
 ! A38   A(18,17,25)           118.4044         estimate D2E/DX2                !
 ! A39   A(13,19,20)           122.3162         estimate D2E/DX2                !
 ! A40   A(13,19,21)           115.6804         estimate D2E/DX2                !
 ! A41   A(20,19,21)           115.9484         estimate D2E/DX2                !
 ! A42   A(12,21,19)           121.5713         estimate D2E/DX2                !
 ! A43   A(12,21,22)           115.2871         estimate D2E/DX2                !
 ! A44   A(19,21,22)           112.7277         estimate D2E/DX2                !
 ! A45   A(6,23,15)            121.9439         estimate D2E/DX2                !
 ! A46   A(6,23,24)            119.4613         estimate D2E/DX2                !
 ! A47   A(15,23,24)           118.562          estimate D2E/DX2                !
 ! A48   A(6,25,17)            120.0734         estimate D2E/DX2                !
 ! A49   A(6,25,26)            120.799          estimate D2E/DX2                !
 ! A50   A(17,25,26)           118.9348         estimate D2E/DX2                !
 ! A51   A(5,27,28)            110.3436         estimate D2E/DX2                !
 ! A52   A(5,27,29)            107.6641         estimate D2E/DX2                !
 ! A53   A(5,27,33)            113.9174         estimate D2E/DX2                !
 ! A54   A(28,27,29)           106.6579         estimate D2E/DX2                !
 ! A55   A(28,27,33)           110.5612         estimate D2E/DX2                !
 ! A56   A(29,27,33)           107.3505         estimate D2E/DX2                !
 ! A57   A(5,30,31)            110.4071         estimate D2E/DX2                !
 ! A58   A(5,30,32)            110.5712         estimate D2E/DX2                !
 ! A59   A(5,30,37)            111.562          estimate D2E/DX2                !
 ! A60   A(31,30,32)           104.822          estimate D2E/DX2                !
 ! A61   A(31,30,37)           110.2184         estimate D2E/DX2                !
 ! A62   A(32,30,37)           109.0434         estimate D2E/DX2                !
 ! A63   A(27,33,34)           110.1453         estimate D2E/DX2                !
 ! A64   A(27,33,35)           109.4772         estimate D2E/DX2                !
 ! A65   A(27,33,36)           113.2112         estimate D2E/DX2                !
 ! A66   A(34,33,35)           106.9153         estimate D2E/DX2                !
 ! A67   A(34,33,36)           108.7973         estimate D2E/DX2                !
 ! A68   A(35,33,36)           108.0812         estimate D2E/DX2                !
 ! A69   A(30,37,38)           110.923          estimate D2E/DX2                !
 ! A70   A(30,37,39)           109.4473         estimate D2E/DX2                !
 ! A71   A(30,37,40)           112.0545         estimate D2E/DX2                !
 ! A72   A(38,37,39)           107.2944         estimate D2E/DX2                !
 ! A73   A(38,37,40)           108.1732         estimate D2E/DX2                !
 ! A74   A(39,37,40)           108.8086         estimate D2E/DX2                !
 ! A75   A(1,42,50)            125.5254         estimate D2E/DX2                !
 ! A76   A(1,43,45)            122.3684         estimate D2E/DX2                !
 ! A77   A(1,43,46)            129.4479         estimate D2E/DX2                !
 ! A78   A(45,43,46)           105.0256         estimate D2E/DX2                !
 ! A79   A(51,44,66)           118.3532         estimate D2E/DX2                !
 ! A80   A(51,44,69)           114.973          estimate D2E/DX2                !
 ! A81   A(66,44,69)           117.2237         estimate D2E/DX2                !
 ! A82   A(43,45,62)           120.4484         estimate D2E/DX2                !
 ! A83   A(43,45,64)           120.6473         estimate D2E/DX2                !
 ! A84   A(62,45,64)           118.6662         estimate D2E/DX2                !
 ! A85   A(43,46,47)           127.428          estimate D2E/DX2                !
 ! A86   A(43,46,52)           113.9642         estimate D2E/DX2                !
 ! A87   A(47,46,52)           117.1672         estimate D2E/DX2                !
 ! A88   A(49,48,50)           113.1312         estimate D2E/DX2                !
 ! A89   A(49,48,51)           123.6774         estimate D2E/DX2                !
 ! A90   A(50,48,51)           114.2718         estimate D2E/DX2                !
 ! A91   A(42,50,48)           124.4335         estimate D2E/DX2                !
 ! A92   A(42,50,52)           116.4035         estimate D2E/DX2                !
 ! A93   A(48,50,52)           118.5103         estimate D2E/DX2                !
 ! A94   A(44,51,48)           120.3559         estimate D2E/DX2                !
 ! A95   A(44,51,60)           116.3958         estimate D2E/DX2                !
 ! A96   A(48,51,60)           118.283          estimate D2E/DX2                !
 ! A97   A(46,52,50)           112.3296         estimate D2E/DX2                !
 ! A98   A(46,52,58)           125.5419         estimate D2E/DX2                !
 ! A99   A(50,52,58)           122.0742         estimate D2E/DX2                !
 ! A100  A(41,53,54)           122.016          estimate D2E/DX2                !
 ! A101  A(41,53,56)           118.6656         estimate D2E/DX2                !
 ! A102  A(54,53,56)           119.31           estimate D2E/DX2                !
 ! A103  A(53,54,55)           122.2049         estimate D2E/DX2                !
 ! A104  A(53,54,62)           119.3639         estimate D2E/DX2                !
 ! A105  A(55,54,62)           118.431          estimate D2E/DX2                !
 ! A106  A(53,56,57)           119.9127         estimate D2E/DX2                !
 ! A107  A(53,56,64)           121.177          estimate D2E/DX2                !
 ! A108  A(57,56,64)           118.3119         estimate D2E/DX2                !
 ! A109  A(52,58,59)           123.8992         estimate D2E/DX2                !
 ! A110  A(52,58,60)           115.6772         estimate D2E/DX2                !
 ! A111  A(59,58,60)           119.7706         estimate D2E/DX2                !
 ! A112  A(51,60,58)           119.4485         estimate D2E/DX2                !
 ! A113  A(51,60,61)           117.725          estimate D2E/DX2                !
 ! A114  A(58,60,61)           118.8828         estimate D2E/DX2                !
 ! A115  A(45,62,54)           121.4588         estimate D2E/DX2                !
 ! A116  A(45,62,63)           118.6754         estimate D2E/DX2                !
 ! A117  A(54,62,63)           119.8641         estimate D2E/DX2                !
 ! A118  A(45,64,56)           119.8569         estimate D2E/DX2                !
 ! A119  A(45,64,65)           121.1739         estimate D2E/DX2                !
 ! A120  A(56,64,65)           118.7549         estimate D2E/DX2                !
 ! A121  A(44,66,67)           110.1939         estimate D2E/DX2                !
 ! A122  A(44,66,68)           107.4532         estimate D2E/DX2                !
 ! A123  A(44,66,72)           115.5846         estimate D2E/DX2                !
 ! A124  A(67,66,68)           106.5077         estimate D2E/DX2                !
 ! A125  A(67,66,72)           107.7782         estimate D2E/DX2                !
 ! A126  A(68,66,72)           108.9566         estimate D2E/DX2                !
 ! A127  A(44,69,70)           109.7854         estimate D2E/DX2                !
 ! A128  A(44,69,71)           111.7725         estimate D2E/DX2                !
 ! A129  A(44,69,76)           112.939          estimate D2E/DX2                !
 ! A130  A(70,69,71)           106.8563         estimate D2E/DX2                !
 ! A131  A(70,69,76)           109.5805         estimate D2E/DX2                !
 ! A132  A(71,69,76)           105.6615         estimate D2E/DX2                !
 ! A133  A(66,72,73)           110.3918         estimate D2E/DX2                !
 ! A134  A(66,72,74)           111.0753         estimate D2E/DX2                !
 ! A135  A(66,72,75)           111.6339         estimate D2E/DX2                !
 ! A136  A(73,72,74)           106.8966         estimate D2E/DX2                !
 ! A137  A(73,72,75)           107.9124         estimate D2E/DX2                !
 ! A138  A(74,72,75)           108.7605         estimate D2E/DX2                !
 ! A139  A(69,76,77)           111.2711         estimate D2E/DX2                !
 ! A140  A(69,76,78)           109.9432         estimate D2E/DX2                !
 ! A141  A(69,76,79)           112.1494         estimate D2E/DX2                !
 ! A142  A(77,76,78)           106.1025         estimate D2E/DX2                !
 ! A143  A(77,76,79)           108.986          estimate D2E/DX2                !
 ! A144  A(78,76,79)           108.1617         estimate D2E/DX2                !
 ! A145  L(3,1,42,43,-1)       179.8188         estimate D2E/DX2                !
 ! A146  L(4,1,43,42,-1)       179.753          estimate D2E/DX2                !
 ! A147  L(3,1,42,43,-2)       179.5172         estimate D2E/DX2                !
 ! A148  L(4,1,43,42,-2)       179.5659         estimate D2E/DX2                !
 ! D1    D(4,1,3,11)            37.288          estimate D2E/DX2                !
 ! D2    D(43,1,3,11)         -143.1441         estimate D2E/DX2                !
 ! D3    D(11,3,42,50)         -82.2548         estimate D2E/DX2                !
 ! D4    D(3,1,4,6)            123.6757         estimate D2E/DX2                !
 ! D5    D(3,1,4,7)            -59.2421         estimate D2E/DX2                !
 ! D6    D(42,1,4,6)           -56.8059         estimate D2E/DX2                !
 ! D7    D(42,1,4,7)           120.2764         estimate D2E/DX2                !
 ! D8    D(6,4,43,45)           50.0593         estimate D2E/DX2                !
 ! D9    D(6,4,43,46)         -106.4132         estimate D2E/DX2                !
 ! D10   D(7,4,43,45)         -132.8474         estimate D2E/DX2                !
 ! D11   D(7,4,43,46)           70.6801         estimate D2E/DX2                !
 ! D12   D(4,1,42,50)         -119.8397         estimate D2E/DX2                !
 ! D13   D(43,1,42,50)          60.5944         estimate D2E/DX2                !
 ! D14   D(3,1,43,45)          -73.5276         estimate D2E/DX2                !
 ! D15   D(3,1,43,46)          129.6889         estimate D2E/DX2                !
 ! D16   D(42,1,43,45)         106.9552         estimate D2E/DX2                !
 ! D17   D(42,1,43,46)         -49.8283         estimate D2E/DX2                !
 ! D18   D(1,3,11,9)          -167.3786         estimate D2E/DX2                !
 ! D19   D(1,3,11,13)           -3.4367         estimate D2E/DX2                !
 ! D20   D(1,4,6,23)           126.1114         estimate D2E/DX2                !
 ! D21   D(1,4,6,25)           -60.5324         estimate D2E/DX2                !
 ! D22   D(7,4,6,23)           -51.2033         estimate D2E/DX2                !
 ! D23   D(7,4,6,25)           122.1529         estimate D2E/DX2                !
 ! D24   D(1,4,7,8)           -156.5881         estimate D2E/DX2                !
 ! D25   D(1,4,7,13)            45.7024         estimate D2E/DX2                !
 ! D26   D(6,4,7,8)             20.7061         estimate D2E/DX2                !
 ! D27   D(6,4,7,13)          -137.0034         estimate D2E/DX2                !
 ! D28   D(27,5,12,9)         -149.9605         estimate D2E/DX2                !
 ! D29   D(27,5,12,21)          59.8966         estimate D2E/DX2                !
 ! D30   D(30,5,12,9)           70.1601         estimate D2E/DX2                !
 ! D31   D(30,5,12,21)         -79.9828         estimate D2E/DX2                !
 ! D32   D(12,5,27,28)         -70.5774         estimate D2E/DX2                !
 ! D33   D(12,5,27,29)         173.3871         estimate D2E/DX2                !
 ! D34   D(12,5,27,33)          54.4661         estimate D2E/DX2                !
 ! D35   D(30,5,27,28)          70.3961         estimate D2E/DX2                !
 ! D36   D(30,5,27,29)         -45.6394         estimate D2E/DX2                !
 ! D37   D(30,5,27,33)        -164.5605         estimate D2E/DX2                !
 ! D38   D(12,5,30,31)         131.6243         estimate D2E/DX2                !
 ! D39   D(12,5,30,32)          16.0828         estimate D2E/DX2                !
 ! D40   D(12,5,30,37)        -105.4533         estimate D2E/DX2                !
 ! D41   D(27,5,30,31)         -13.5363         estimate D2E/DX2                !
 ! D42   D(27,5,30,32)        -129.0778         estimate D2E/DX2                !
 ! D43   D(27,5,30,37)         109.3862         estimate D2E/DX2                !
 ! D44   D(4,6,23,15)          171.066          estimate D2E/DX2                !
 ! D45   D(4,6,23,24)           -6.8212         estimate D2E/DX2                !
 ! D46   D(25,6,23,15)          -2.4107         estimate D2E/DX2                !
 ! D47   D(25,6,23,24)         179.7021         estimate D2E/DX2                !
 ! D48   D(4,6,25,17)         -167.9169         estimate D2E/DX2                !
 ! D49   D(4,6,25,26)            6.9841         estimate D2E/DX2                !
 ! D50   D(23,6,25,17)           5.6822         estimate D2E/DX2                !
 ! D51   D(23,6,25,26)        -179.4168         estimate D2E/DX2                !
 ! D52   D(4,7,13,11)           -0.5542         estimate D2E/DX2                !
 ! D53   D(4,7,13,19)          140.9032         estimate D2E/DX2                !
 ! D54   D(8,7,13,11)         -160.4356         estimate D2E/DX2                !
 ! D55   D(8,7,13,19)          -18.9783         estimate D2E/DX2                !
 ! D56   D(10,9,11,3)          -11.0009         estimate D2E/DX2                !
 ! D57   D(10,9,11,13)        -174.5772         estimate D2E/DX2                !
 ! D58   D(12,9,11,3)          128.6457         estimate D2E/DX2                !
 ! D59   D(12,9,11,13)         -34.9306         estimate D2E/DX2                !
 ! D60   D(10,9,12,5)           26.0076         estimate D2E/DX2                !
 ! D61   D(10,9,12,21)         176.0322         estimate D2E/DX2                !
 ! D62   D(11,9,12,5)         -109.7469         estimate D2E/DX2                !
 ! D63   D(11,9,12,21)          40.2778         estimate D2E/DX2                !
 ! D64   D(3,11,13,7)          -19.0066         estimate D2E/DX2                !
 ! D65   D(3,11,13,19)        -157.9864         estimate D2E/DX2                !
 ! D66   D(9,11,13,7)          145.4431         estimate D2E/DX2                !
 ! D67   D(9,11,13,19)           6.4634         estimate D2E/DX2                !
 ! D68   D(5,12,21,19)         129.6508         estimate D2E/DX2                !
 ! D69   D(5,12,21,22)         -12.7068         estimate D2E/DX2                !
 ! D70   D(9,12,21,19)         -20.3671         estimate D2E/DX2                !
 ! D71   D(9,12,21,22)        -162.7248         estimate D2E/DX2                !
 ! D72   D(7,13,19,20)          29.1251         estimate D2E/DX2                !
 ! D73   D(7,13,19,21)        -122.3573         estimate D2E/DX2                !
 ! D74   D(11,13,19,20)        166.7513         estimate D2E/DX2                !
 ! D75   D(11,13,19,21)         15.2689         estimate D2E/DX2                !
 ! D76   D(2,14,15,16)           2.7071         estimate D2E/DX2                !
 ! D77   D(2,14,15,23)        -176.6498         estimate D2E/DX2                !
 ! D78   D(17,14,15,16)       -178.5437         estimate D2E/DX2                !
 ! D79   D(17,14,15,23)          2.0994         estimate D2E/DX2                !
 ! D80   D(2,14,17,18)           9.3609         estimate D2E/DX2                !
 ! D81   D(2,14,17,25)         179.991          estimate D2E/DX2                !
 ! D82   D(15,14,17,18)       -169.4243         estimate D2E/DX2                !
 ! D83   D(15,14,17,25)          1.2059         estimate D2E/DX2                !
 ! D84   D(14,15,23,6)          -1.64           estimate D2E/DX2                !
 ! D85   D(14,15,23,24)        176.2655         estimate D2E/DX2                !
 ! D86   D(16,15,23,6)         178.9767         estimate D2E/DX2                !
 ! D87   D(16,15,23,24)         -3.1178         estimate D2E/DX2                !
 ! D88   D(14,17,25,6)          -5.3547         estimate D2E/DX2                !
 ! D89   D(14,17,25,26)        179.6497         estimate D2E/DX2                !
 ! D90   D(18,17,25,6)         165.3941         estimate D2E/DX2                !
 ! D91   D(18,17,25,26)         -9.6015         estimate D2E/DX2                !
 ! D92   D(13,19,21,12)         -9.8033         estimate D2E/DX2                !
 ! D93   D(13,19,21,22)        133.42           estimate D2E/DX2                !
 ! D94   D(20,19,21,12)       -163.142          estimate D2E/DX2                !
 ! D95   D(20,19,21,22)        -19.9187         estimate D2E/DX2                !
 ! D96   D(5,27,33,34)        -100.744          estimate D2E/DX2                !
 ! D97   D(5,27,33,35)         141.9675         estimate D2E/DX2                !
 ! D98   D(5,27,33,36)          21.3128         estimate D2E/DX2                !
 ! D99   D(28,27,33,34)         24.1835         estimate D2E/DX2                !
 ! D100  D(28,27,33,35)        -93.105          estimate D2E/DX2                !
 ! D101  D(28,27,33,36)        146.2403         estimate D2E/DX2                !
 ! D102  D(29,27,33,34)        140.1565         estimate D2E/DX2                !
 ! D103  D(29,27,33,35)         22.868          estimate D2E/DX2                !
 ! D104  D(29,27,33,36)        -97.7866         estimate D2E/DX2                !
 ! D105  D(5,30,37,38)          80.3548         estimate D2E/DX2                !
 ! D106  D(5,30,37,39)        -161.4476         estimate D2E/DX2                !
 ! D107  D(5,30,37,40)         -40.6535         estimate D2E/DX2                !
 ! D108  D(31,30,37,38)       -156.6151         estimate D2E/DX2                !
 ! D109  D(31,30,37,39)        -38.4174         estimate D2E/DX2                !
 ! D110  D(31,30,37,40)         82.3767         estimate D2E/DX2                !
 ! D111  D(32,30,37,38)        -42.0627         estimate D2E/DX2                !
 ! D112  D(32,30,37,39)         76.1349         estimate D2E/DX2                !
 ! D113  D(32,30,37,40)       -163.0709         estimate D2E/DX2                !
 ! D114  D(1,42,50,48)         126.3836         estimate D2E/DX2                !
 ! D115  D(1,42,50,52)         -44.1886         estimate D2E/DX2                !
 ! D116  D(1,43,45,62)         107.4148         estimate D2E/DX2                !
 ! D117  D(1,43,45,64)         -78.2664         estimate D2E/DX2                !
 ! D118  D(46,43,45,62)        -90.9571         estimate D2E/DX2                !
 ! D119  D(46,43,45,64)         83.3617         estimate D2E/DX2                !
 ! D120  D(1,43,46,47)        -170.6895         estimate D2E/DX2                !
 ! D121  D(1,43,46,52)          23.5268         estimate D2E/DX2                !
 ! D122  D(45,43,46,47)         29.4766         estimate D2E/DX2                !
 ! D123  D(45,43,46,52)       -136.3071         estimate D2E/DX2                !
 ! D124  D(66,44,51,48)         73.0683         estimate D2E/DX2                !
 ! D125  D(66,44,51,60)       -132.2842         estimate D2E/DX2                !
 ! D126  D(69,44,51,48)        -72.4969         estimate D2E/DX2                !
 ! D127  D(69,44,51,60)         82.1506         estimate D2E/DX2                !
 ! D128  D(51,44,66,67)        -15.9449         estimate D2E/DX2                !
 ! D129  D(51,44,66,68)         99.7134         estimate D2E/DX2                !
 ! D130  D(51,44,66,72)       -138.4109         estimate D2E/DX2                !
 ! D131  D(69,44,66,67)        128.8534         estimate D2E/DX2                !
 ! D132  D(69,44,66,68)       -115.4883         estimate D2E/DX2                !
 ! D133  D(69,44,66,72)          6.3874         estimate D2E/DX2                !
 ! D134  D(51,44,69,70)         53.7893         estimate D2E/DX2                !
 ! D135  D(51,44,69,71)        172.1824         estimate D2E/DX2                !
 ! D136  D(51,44,69,76)        -68.8253         estimate D2E/DX2                !
 ! D137  D(66,44,69,70)        -92.1809         estimate D2E/DX2                !
 ! D138  D(66,44,69,71)         26.2122         estimate D2E/DX2                !
 ! D139  D(66,44,69,76)        145.2045         estimate D2E/DX2                !
 ! D140  D(43,45,62,54)        169.5424         estimate D2E/DX2                !
 ! D141  D(43,45,62,63)        -10.9393         estimate D2E/DX2                !
 ! D142  D(64,45,62,54)         -4.8876         estimate D2E/DX2                !
 ! D143  D(64,45,62,63)        174.6307         estimate D2E/DX2                !
 ! D144  D(43,45,64,56)       -170.7323         estimate D2E/DX2                !
 ! D145  D(43,45,64,65)          3.8814         estimate D2E/DX2                !
 ! D146  D(62,45,64,56)          3.6863         estimate D2E/DX2                !
 ! D147  D(62,45,64,65)        178.2999         estimate D2E/DX2                !
 ! D148  D(43,46,52,50)          5.0108         estimate D2E/DX2                !
 ! D149  D(43,46,52,58)       -177.6348         estimate D2E/DX2                !
 ! D150  D(47,46,52,50)       -162.3269         estimate D2E/DX2                !
 ! D151  D(47,46,52,58)         15.0275         estimate D2E/DX2                !
 ! D152  D(49,48,50,42)        -12.5602         estimate D2E/DX2                !
 ! D153  D(49,48,50,52)        157.8284         estimate D2E/DX2                !
 ! D154  D(51,48,50,42)       -161.2191         estimate D2E/DX2                !
 ! D155  D(51,48,50,52)          9.1695         estimate D2E/DX2                !
 ! D156  D(49,48,51,44)        -24.9355         estimate D2E/DX2                !
 ! D157  D(49,48,51,60)       -179.1157         estimate D2E/DX2                !
 ! D158  D(50,48,51,44)        119.9803         estimate D2E/DX2                !
 ! D159  D(50,48,51,60)        -34.2            estimate D2E/DX2                !
 ! D160  D(42,50,52,46)          3.5029         estimate D2E/DX2                !
 ! D161  D(42,50,52,58)       -173.9567         estimate D2E/DX2                !
 ! D162  D(48,50,52,46)       -167.6529         estimate D2E/DX2                !
 ! D163  D(48,50,52,58)         14.8875         estimate D2E/DX2                !
 ! D164  D(44,51,60,58)       -116.1062         estimate D2E/DX2                !
 ! D165  D(44,51,60,61)         41.3158         estimate D2E/DX2                !
 ! D166  D(48,51,60,58)         39.0862         estimate D2E/DX2                !
 ! D167  D(48,51,60,61)       -163.4918         estimate D2E/DX2                !
 ! D168  D(46,52,58,59)          0.5417         estimate D2E/DX2                !
 ! D169  D(46,52,58,60)        171.2286         estimate D2E/DX2                !
 ! D170  D(50,52,58,59)        177.6535         estimate D2E/DX2                !
 ! D171  D(50,52,58,60)        -11.6596         estimate D2E/DX2                !
 ! D172  D(41,53,54,55)          1.6471         estimate D2E/DX2                !
 ! D173  D(41,53,54,62)       -178.1684         estimate D2E/DX2                !
 ! D174  D(56,53,54,55)       -179.4249         estimate D2E/DX2                !
 ! D175  D(56,53,54,62)          0.7597         estimate D2E/DX2                !
 ! D176  D(41,53,56,57)          6.0747         estimate D2E/DX2                !
 ! D177  D(41,53,56,64)        177.0559         estimate D2E/DX2                !
 ! D178  D(54,53,56,57)       -172.8895         estimate D2E/DX2                !
 ! D179  D(54,53,56,64)         -1.9082         estimate D2E/DX2                !
 ! D180  D(53,54,62,45)          2.5913         estimate D2E/DX2                !
 ! D181  D(53,54,62,63)       -176.9214         estimate D2E/DX2                !
 ! D182  D(55,54,62,45)       -177.2312         estimate D2E/DX2                !
 ! D183  D(55,54,62,63)          3.2562         estimate D2E/DX2                !
 ! D184  D(53,56,64,45)         -0.4297         estimate D2E/DX2                !
 ! D185  D(53,56,64,65)       -175.1733         estimate D2E/DX2                !
 ! D186  D(57,56,64,45)        170.692          estimate D2E/DX2                !
 ! D187  D(57,56,64,65)         -4.0516         estimate D2E/DX2                !
 ! D188  D(52,58,60,51)        -13.8215         estimate D2E/DX2                !
 ! D189  D(52,58,60,61)       -170.9826         estimate D2E/DX2                !
 ! D190  D(59,58,60,51)        157.2765         estimate D2E/DX2                !
 ! D191  D(59,58,60,61)          0.1154         estimate D2E/DX2                !
 ! D192  D(44,66,72,73)        172.4751         estimate D2E/DX2                !
 ! D193  D(44,66,72,74)        -69.129          estimate D2E/DX2                !
 ! D194  D(44,66,72,75)         52.447          estimate D2E/DX2                !
 ! D195  D(67,66,72,73)         48.7342         estimate D2E/DX2                !
 ! D196  D(67,66,72,74)        167.1301         estimate D2E/DX2                !
 ! D197  D(67,66,72,75)        -71.2939         estimate D2E/DX2                !
 ! D198  D(68,66,72,73)        -66.457          estimate D2E/DX2                !
 ! D199  D(68,66,72,74)         51.9389         estimate D2E/DX2                !
 ! D200  D(68,66,72,75)        173.515          estimate D2E/DX2                !
 ! D201  D(44,69,76,77)         90.2857         estimate D2E/DX2                !
 ! D202  D(44,69,76,78)       -152.464          estimate D2E/DX2                !
 ! D203  D(44,69,76,79)        -32.0859         estimate D2E/DX2                !
 ! D204  D(70,69,76,77)        -32.4432         estimate D2E/DX2                !
 ! D205  D(70,69,76,78)         84.8071         estimate D2E/DX2                !
 ! D206  D(70,69,76,79)       -154.8147         estimate D2E/DX2                !
 ! D207  D(71,69,76,77)       -147.2375         estimate D2E/DX2                !
 ! D208  D(71,69,76,78)        -29.9872         estimate D2E/DX2                !
 ! D209  D(71,69,76,79)         90.3909         estimate D2E/DX2                !
 --------------------------------------------------------------------------------
 Trust Radius=3.00D-01 FncErr=1.00D-07 GrdErr=1.00D-07
 Number of steps in this run=    451 maximum allowed number of steps=    474.
 GradGradGradGradGradGradGradGradGradGradGradGradGradGradGradGradGradGrad

 Leave Link  103 at Mon Sep 15 20:02:38 2025, MaxMem=    33554432 cpu:         0.0
 (Enter /appl/g09.shchoi/G09Files/g09/l202.exe)
 Stoichiometry    C34H36Cl2CuN4O2(2)
 Framework group  C1[X(C34H36Cl2CuN4O2)]
 Deg. of freedom   231
 Full point group                 C1      NOp   1
 Largest Abelian subgroup         C1      NOp   1
 Largest concise Abelian subgroup C1      NOp   1
                         Standard orientation:                         
 ---------------------------------------------------------------------
 Center     Atomic      Atomic             Coordinates (Angstroms)
 Number     Number       Type             X           Y           Z
 ---------------------------------------------------------------------
      1         29           0       -0.237518    0.458836   -0.143820
      2         17           0        0.228522   -4.202849    4.991573
      3          8           0        0.814056    0.341645   -1.089816
      4          7           0       -0.414213   -0.976306    0.026574
      5          7           0        3.926111   -2.109154   -1.940529
      6          6           0       -0.329408   -1.586636    1.250836
      7          6           0       -0.719245   -1.777687   -0.956097
      8          1           0       -1.210247   -2.762022   -0.856899
      9          6           0        2.353426   -0.519964   -2.694937
     10          1           0        3.006321    0.301097   -2.421844
     11          6           0        1.032570   -0.445079   -2.014473
     12          6           0        2.817162   -1.788837   -2.746337
     13          6           0        0.069805   -1.556274   -2.185754
     14          6           0       -0.059550   -3.220150    3.613727
     15          6           0       -1.236737   -3.237002    2.963985
     16          1           0       -2.074860   -3.834865    3.297867
     17          6           0        1.006987   -2.368135    3.122219
     18          1           0        2.008059   -2.471686    3.527743
     19          6           0        0.427891   -2.675316   -2.836452
     20          1           0       -0.167387   -3.583318   -2.801169
     21          6           0        1.858624   -2.858749   -3.036177
     22          1           0        2.193388   -3.864550   -2.783841
     23          6           0       -1.396646   -2.435908    1.758128
     24          1           0       -2.327319   -2.505275    1.210614
     25          6           0        0.816577   -1.516728    1.959737
     26          1           0        1.636801   -0.890939    1.628207
     27          6           0        4.925745   -3.134067   -2.286113
     28          1           0        4.488084   -4.135815   -2.205250
     29          1           0        5.729440   -3.080555   -1.539935
     30          6           0        3.622543   -2.139254   -0.473770
     31          1           0        4.016644   -3.055278   -0.020947
     32          1           0        2.539971   -2.186281   -0.305223
     33          6           0        5.560177   -2.938811   -3.648465
     34          1           0        5.100473   -3.612236   -4.378295
     35          1           0        6.623344   -3.201362   -3.597610
     36          1           0        5.481368   -1.913028   -4.017304
     37          6           0        4.180901   -0.922345    0.235513
     38          1           0        3.524431   -0.056013    0.101423
     39          1           0        4.240495   -1.122236    1.310044
     40          1           0        5.175736   -0.655661   -0.128861
     41         17           0        4.277950    5.371235    1.831610
     42          8           0       -1.271880    0.577654    0.771043
     43          7           0       -0.062483    1.860551   -0.298083
     44          7           0       -5.470553    0.394424   -0.808888
     45          6           0        1.031785    2.541586    0.241364
     46          6           0       -0.967543    2.802859   -0.544613
     47          1           0       -0.782089    3.862156   -0.798237
     48          6           0       -3.692572    0.504225    0.778315
     49          1           0       -3.630190   -0.562855    0.937196
     50          6           0       -2.370498    1.138647    0.558041
     51          6           0       -4.710498    1.105267    0.130335
     52          6           0       -2.319577    2.441878   -0.147378
     53          6           0        3.123529    4.278923    1.180583
     54          6           0        3.120610    3.935709   -0.121005
     55          1           0        3.859903    4.309195   -0.817684
     56          6           0        2.109500    3.730957    2.061927
     57          1           0        2.030409    4.087747    3.083498
     58          6           0       -3.409106    3.193830   -0.328175
     59          1           0       -3.399820    4.165471   -0.805948
     60          6           0       -4.665520    2.553121   -0.034486
     61          1           0       -5.588304    3.060272   -0.301843
     62          6           0        2.088559    3.033832   -0.620671
     63          1           0        2.107535    2.713061   -1.653747
     64          6           0        1.069612    2.853188    1.556837
     65          1           0        0.285133    2.529221    2.233926
     66          6           0       -6.424565   -0.626018   -0.314830
     67          1           0       -6.199730   -0.881114    0.728464
     68          1           0       -7.421534   -0.171806   -0.316333
     69          6           0       -4.771531    0.109532   -2.103000
     70          1           0       -3.813406   -0.392661   -1.905806
     71          1           0       -5.352558   -0.557110   -2.737438
     72          6           0       -6.470712   -1.921842   -1.110237
     73          1           0       -7.096643   -2.659012   -0.601212
     74          1           0       -6.910188   -1.760628   -2.100873
     75          1           0       -5.472255   -2.355569   -1.234045
     76          6           0       -4.529430    1.362761   -2.935782
     77          1           0       -3.562988    1.816555   -2.698119
     78          1           0       -4.489798    1.103227   -3.997571
     79          1           0       -5.316844    2.108993   -2.796383
 ---------------------------------------------------------------------
 Rotational constants (GHZ):      0.0708472      0.0565979      0.0478935
 Leave Link  202 at Mon Sep 15 20:02:38 2025, MaxMem=    33554432 cpu:         0.0
 (Enter /appl/g09.shchoi/G09Files/g09/l301.exe)
 Standard basis: SDD (6D, 10F)
 Ernie: Thresh=  0.10000D-02 Tol=  0.10000D-05 Strict=F.
 There are   547 symmetry adapted cartesian basis functions of A   symmetry.
 There are   547 symmetry adapted basis functions of A   symmetry.
   547 basis functions,  1241 primitive gaussians,   547 cartesian basis functions
   169 alpha electrons      168 beta electrons
       nuclear repulsion energy      6332.0189719980 Hartrees.
 IExCor=    0 DFT=F Ex=HF Corr=None ExCW=0 ScaHFX=  1.000000
 ScaDFX=  1.000000  1.000000  1.000000  1.000000 ScalE2=  1.000000  1.000000
 IRadAn=      0 IRanWt=     -1 IRanGd=            0 ICorTp=0 IEmpDi=  4
 NAtoms=   79 NActive=   79 NUniq=   79 SFac= 1.00D+00 NAtFMM=   60 NAOKFM=T Big=T
 Integral buffers will be    131072 words long.
 Raffenetti 2 integral format.
 Two-electron integral symmetry is turned on.
 Leave Link  301 at Mon Sep 15 20:02:38 2025, MaxMem=    33554432 cpu:         0.0
 (Enter /appl/g09.shchoi/G09Files/g09/l402.exe)
 External calculation of energy and first derivatives.
 Running external command "/home/rxn_grp/programs/xtb-gaussian R"
         input file       "/home/rxn_grp/scratch/metallogen_test/Gau-3425603.EIn"
         output file      "/home/rxn_grp/scratch/metallogen_test/Gau-3425603.EOu"
         message file     "/home/rxn_grp/scratch/metallogen_test/Gau-3425603.EMs"
         fchk file        "/home/rxn_grp/scratch/metallogen_test/Gau-3425603.EFC"
         mat. el file     "/home/rxn_grp/scratch/metallogen_test/Gau-3425603.EUF"

 ExternalExternalExternalExternalExternalExternalExternalExternalExternalExternal
 Output from external command:
 "/home/rxn_grp/programs/xtb-gaussian R /home/rxn_grp/scratch/metallogen_test/Gau-3425603.EIn /home/rxn_grp/scratch/metallogen_test/Gau-3425603.EOu /home/rxn_grp/scratch/metallogen_test/Gau-3425603.EMs /home/rxn_grp/scratch/metallogen_test/Gau-3425603.EFC /home/rxn_grp/scratch/metallogen_test/Gau-3425603.EUF"
 normal termination of xtb
  
 ------- xtb command was ---------
 ?> xtb ./Gau-3425603.EIn  --grad --charge 0  >/dev/null 2>Gau-3425603.EMs
 ---------------------------------
 WARNING: Gaussian multiplicity S=2 is not singlet.
          This is not not explicitly supported. Results are likely wrong without
          an appropriate --uhf argument xtb command line!
              Control returned to Gaussian.
 ~~~~~~~~~~~~~~~~~~~~~~~~~~~~~~~~~~~~~~~~~~~~~~~~~~~~~~~~~~~~~~~~~~~~~~~~~
 ExternalExternalExternalExternalExternalExternalExternalExternalExternalExternal

 Recovered energy= -123.403899072     dipole=     -0.290703499302     -0.767331215721     -0.615186113211
 Energy=    -123.403899     NIter=   0.
 Dipole moment=      -0.290703      -0.767331      -0.615186
 Leave Link  402 at Mon Sep 15 20:02:38 2025, MaxMem=    33554432 cpu:         0.0
 (Enter /appl/g09.shchoi/G09Files/g09/l601.exe)
 Leave Link  601 at Mon Sep 15 20:02:38 2025, MaxMem=    33554432 cpu:         0.0
 (Enter /appl/g09.shchoi/G09Files/g09/l716.exe)
 Dipole        =-2.90703499D-01-7.67331216D-01-6.15186113D-01
 ***** Axes restored to original set *****
 -------------------------------------------------------------------
 Center     Atomic                   Forces (Hartrees/Bohr)
 Number     Number              X              Y              Z
 -------------------------------------------------------------------
      1       29          -0.067460250    0.073920105    0.013743795
      2       17          -0.001143666   -0.000243231   -0.001835815
      3        8           0.074366105    0.245884196   -0.045864291
      4        7          -0.272223077   -0.014327269   -0.004655344
      5        7          -0.002702117    0.014458118   -0.023346447
      6        6          -0.054736341   -0.062714259    0.016150750
      7        6          -0.010290763    0.056376326    0.050079337
      8        1           0.014593311    0.000655665   -0.008603762
      9        6           0.032607119   -0.072744245   -0.000303873
     10        1          -0.001751099    0.001738283   -0.000053572
     11        6          -0.073586449    0.069841553    0.050810150
     12        6          -0.081297510   -0.012297607    0.018714267
     13        6           0.040341489   -0.049336417   -0.028217141
     14        6           0.038807353    0.045933978   -0.032501272
     15        6           0.033585143    0.009448696    0.066249859
     16        1           0.001722460    0.002528105   -0.000449650
     17        6           0.001762666   -0.002869198    0.034401197
     18        1           0.003957746   -0.007725661    0.002761392
     19        6          -0.040408714    0.083236084   -0.028638545
     20        1           0.005646392    0.001820267    0.003487687
     21        6           0.012307439   -0.029750039   -0.005194897
     22        1           0.004582384    0.010920292    0.013203640
     23        6          -0.009952691    0.004539720   -0.037822445
     24        1           0.000717649    0.000952591   -0.004224396
     25        6          -0.034080806   -0.011196684   -0.069692227
     26        1          -0.001498342   -0.001587694   -0.000787753
     27        6           0.006830275   -0.009679933    0.000080236
     28        1          -0.003539014    0.001458276    0.001355880
     29        1           0.002902894   -0.005161148    0.002400513
     30        6           0.002046011    0.008821665    0.016603954
     31        1           0.001834409    0.006243115    0.001303131
     32        1           0.001589787    0.001659042    0.003675512
     33        6          -0.003219163    0.011744631    0.006655996
     34        1           0.005541116   -0.000577410   -0.000303852
     35        1           0.001569427   -0.003020726    0.003952842
     36        1          -0.004362090   -0.003713583   -0.002335072
     37        6           0.008000596   -0.005179807   -0.006096057
     38        1          -0.001910651    0.003893843   -0.000424382
     39        1           0.001376620    0.002862836    0.001593737
     40        1          -0.003564209   -0.002790974    0.001926159
     41       17           0.000955241    0.000254953   -0.001376019
     42        8          -0.049524365   -0.327135036   -0.059040270
     43        7           0.363663856    0.012275908   -0.006707025
     44        7          -0.018764459   -0.012469083    0.031071234
     45        6           0.028011333    0.079033683   -0.011091885
     46        6           0.000981893   -0.061591832    0.036931019
     47        1          -0.017728610    0.004778640   -0.007224028
     48        6           0.012805696    0.066769176   -0.051461389
     49        1           0.000290628   -0.004816783   -0.000823741
     50        6           0.045110143   -0.062039266    0.072856358
     51        6           0.046834080    0.005717946    0.023845627
     52        6          -0.028190961    0.048669330   -0.045965035
     53        6          -0.024431785   -0.062173343   -0.012520874
     54        6          -0.041563982    0.009757189    0.059199142
     55        1          -0.001937165   -0.002397554    0.000177755
     56        6          -0.004616738    0.014265771    0.030995157
     57        1          -0.004241552    0.006796051    0.000263706
     58        6          -0.012492103   -0.073564622    0.056434350
     59        1          -0.002120002   -0.003424538   -0.004783948
     60        6           0.005686997    0.035937277    0.003342969
     61        1          -0.002761697    0.003867176   -0.002818091
     62        6           0.013498488   -0.016794641   -0.032793634
     63        1           0.003293316   -0.003844710   -0.001652419
     64        6           0.042503749   -0.008208452   -0.060634180
     65        1           0.000763455    0.004013323   -0.001403819
     66        6           0.004783487    0.005520710   -0.004080497
     67        1           0.003309923    0.002373135   -0.002150226
     68        1           0.000384745   -0.001113089    0.001844737
     69        6           0.005816609   -0.014169415   -0.010424750
     70        1           0.000899005    0.001315250   -0.001821995
     71        1          -0.000608143   -0.010406789   -0.002803017
     72        6          -0.005545590    0.003647943    0.005314549
     73        1           0.003370132    0.000213335   -0.001648607
     74        1          -0.001579855   -0.001125170   -0.004672522
     75        1           0.001499903   -0.004581673    0.001972111
     76        6           0.008417707    0.006714566   -0.001751101
     77        1           0.000425245   -0.005442990    0.001752842
     78        1          -0.001022215   -0.003175911   -0.001051782
     79        1          -0.005137849    0.002532033   -0.003099947
 -------------------------------------------------------------------
 Cartesian Forces:  Max     0.363663856 RMS     0.047936173
 Leave Link  716 at Mon Sep 15 20:02:38 2025, MaxMem=    33554432 cpu:         0.0
 (Enter /appl/g09.shchoi/G09Files/g09/l103.exe)

 GradGradGradGradGradGradGradGradGradGradGradGradGradGradGradGradGradGrad
 Berny optimization.
 FormGI is forming the generalized inverse of G from B-inverse, IUseBI=4.
 Internal  Forces:  Max     0.351348176 RMS     0.034222706
 Search for a local minimum.
 Step number   1 out of a maximum of  451
 All quantities printed in internal units (Hartrees-Bohrs-Radians)
 RMS Force = .34223D-01 SwitMx=.10000D-02 MixMth= 1
 Mixed Optimization -- RFO/linear search
 Second derivative matrix not updated -- first step.
 ITU=  0
     Eigenvalues ---    0.00393   0.00393   0.00448   0.00486   0.00561
     Eigenvalues ---    0.00565   0.00611   0.00729   0.01272   0.01296
     Eigenvalues ---    0.01352   0.01368   0.01382   0.01397   0.01436
     Eigenvalues ---    0.01441   0.01447   0.01552   0.01580   0.01590
     Eigenvalues ---    0.01661   0.01668   0.01729   0.01743   0.01843
     Eigenvalues ---    0.01857   0.01863   0.01891   0.01932   0.02054
     Eigenvalues ---    0.02068   0.02079   0.02081   0.02088   0.02104
     Eigenvalues ---    0.02114   0.02165   0.02228   0.02266   0.02281
     Eigenvalues ---    0.02315   0.02323   0.02326   0.02343   0.02383
     Eigenvalues ---    0.02434   0.02591   0.02653   0.02782   0.02942
     Eigenvalues ---    0.03226   0.03272   0.03588   0.03816   0.03858
     Eigenvalues ---    0.04046   0.04049   0.04079   0.04136   0.04397
     Eigenvalues ---    0.05092   0.05379   0.05423   0.05447   0.05462
     Eigenvalues ---    0.05494   0.05496   0.05542   0.05561   0.05697
     Eigenvalues ---    0.05722   0.05833   0.05887   0.08490   0.08862
     Eigenvalues ---    0.09201   0.09240   0.09393   0.09617   0.09811
     Eigenvalues ---    0.11998   0.12767   0.12832   0.13025   0.13149
     Eigenvalues ---    0.13251   0.13275   0.14438   0.14682   0.14775
     Eigenvalues ---    0.15175   0.15456   0.15789   0.15795   0.15808
     Eigenvalues ---    0.15941   0.15947   0.15990   0.15999   0.15999
     Eigenvalues ---    0.16000   0.16000   0.16000   0.16000   0.16000
     Eigenvalues ---    0.16000   0.16000   0.16000   0.16000   0.16000
     Eigenvalues ---    0.16000   0.16000   0.16000   0.17825   0.18151
     Eigenvalues ---    0.19267   0.19752   0.20893   0.21096   0.21185
     Eigenvalues ---    0.21217   0.21368   0.21561   0.21844   0.21951
     Eigenvalues ---    0.21976   0.21991   0.21993   0.22000   0.22169
     Eigenvalues ---    0.22210   0.22452   0.22953   0.22969   0.23009
     Eigenvalues ---    0.23299   0.23342   0.23922   0.23946   0.23968
     Eigenvalues ---    0.24093   0.24544   0.24827   0.24874   0.24977
     Eigenvalues ---    0.24994   0.24996   0.29980   0.30254   0.30808
     Eigenvalues ---    0.30837   0.31234   0.31581   0.32570   0.32573
     Eigenvalues ---    0.32862   0.33145   0.33193   0.33380   0.33728
     Eigenvalues ---    0.33868   0.33906   0.33943   0.33950   0.33981
     Eigenvalues ---    0.34058   0.34096   0.34109   0.34166   0.34172
     Eigenvalues ---    0.34178   0.34218   0.34219   0.34288   0.34321
     Eigenvalues ---    0.34372   0.34376   0.34381   0.34381   0.34477
     Eigenvalues ---    0.34486   0.34524   0.34851   0.34857   0.34928
     Eigenvalues ---    0.35004   0.35235   0.35243   0.35311   0.35392
     Eigenvalues ---    0.35400   0.35406   0.35407   0.35519   0.35557
     Eigenvalues ---    0.35659   0.35716   0.35718   0.35753   0.35766
     Eigenvalues ---    0.35917   0.36118   0.36427   0.36669   0.36783
     Eigenvalues ---    0.36926   0.37617   0.37715   0.37901   0.38187
     Eigenvalues ---    0.38570   0.44364   0.45319   0.46084   0.50864
     Eigenvalues ---    0.51227   0.51766   0.52237   0.52239   0.55234
     Eigenvalues ---    0.55303   0.55717   0.56090   0.56785   0.61646
     Eigenvalues ---    0.76630   0.78367   0.85001   0.91388   0.93572
     Eigenvalues ---    1.06993
 RFO step:  Lambda=-4.26443955D-01 EMin= 3.93154577D-03
 Linear search not attempted -- first point.
 Maximum step size (   0.300) exceeded in Quadratic search.
    -- Step size scaled by   0.508
 Iteration  1 RMS(Cart)=  0.08320905 RMS(Int)=  0.00050983
 Iteration  2 RMS(Cart)=  0.00123361 RMS(Int)=  0.00007460
 Iteration  3 RMS(Cart)=  0.00000049 RMS(Int)=  0.00007460
 ITry= 1 IFail=0 DXMaxC= 3.06D-01 DCOld= 1.00D+10 DXMaxT= 3.00D-01 DXLimC= 3.00D+00 Rises=F
 Variable       Old X    -DE/DX   Delta X   Delta X   Delta X     New X
                                 (Linear)    (Quad)   (Total)
    R1        2.68211   0.27108   0.00000   0.10264   0.10281   2.78492
    R2        2.75141   0.28506   0.00000   0.12051   0.12070   2.87211
    R3        2.61916   0.33668   0.00000   0.11448   0.11467   2.73383
    R4        2.68530   0.35135   0.00000   0.13275   0.13294   2.81824
    R5        3.24414   0.00209   0.00000   0.00139   0.00139   3.24553
    R6        2.33109   0.08720   0.00000   0.03419   0.03419   2.36528
    R7        2.59004   0.04148   0.00000   0.02254   0.02254   2.61257
    R8        2.46455   0.04101   0.00000   0.02026   0.02031   2.48486
    R9        2.66022  -0.00428   0.00000  -0.00250  -0.00250   2.65772
   R10        2.78319  -0.01335   0.00000  -0.00869  -0.00869   2.77450
   R11        2.83109  -0.02458   0.00000  -0.01661  -0.01661   2.81448
   R12        2.74993  -0.04193   0.00000  -0.02650  -0.02649   2.72343
   R13        2.54988   0.03892   0.00000   0.02028   0.02028   2.57015
   R14        2.08713  -0.01582   0.00000  -0.01060  -0.01060   2.07653
   R15        2.79250  -0.00366   0.00000  -0.01201  -0.01222   2.78029
   R16        2.04841  -0.00102   0.00000  -0.00066  -0.00066   2.04774
   R17        2.81138  -0.04086   0.00000  -0.02783  -0.02783   2.78354
   R18        2.55479   0.04543   0.00000   0.02407   0.02411   2.57890
   R19        2.79718   0.00115   0.00000  -0.00861  -0.00882   2.78837
   R20        2.76928  -0.04043   0.00000  -0.02591  -0.02593   2.74335
   R21        2.53807   0.06459   0.00000   0.03330   0.03329   2.57137
   R22        2.54112   0.03279   0.00000   0.01681   0.01681   2.55793
   R23        2.74174  -0.04774   0.00000  -0.03009  -0.03009   2.71165
   R24        2.04525  -0.00303   0.00000  -0.00196  -0.00196   2.04328
   R25        2.75240  -0.05727   0.00000  -0.03636  -0.03635   2.71605
   R26        2.05043  -0.00612   0.00000  -0.00399  -0.00399   2.04645
   R27        2.74662  -0.05663   0.00000  -0.03577  -0.03577   2.71085
   R28        2.05283  -0.00435   0.00000  -0.00283  -0.00283   2.04999
   R29        2.75183  -0.04884   0.00000  -0.03083  -0.03087   2.72097
   R30        2.05917  -0.00690   0.00000  -0.00452  -0.00452   2.05465
   R31        2.04469  -0.00437   0.00000  -0.00283  -0.00283   2.04186
   R32        2.04780  -0.00187   0.00000  -0.00122  -0.00122   2.04658
   R33        2.07146   0.00333   0.00000   0.00220   0.00220   2.07366
   R34        2.07489  -0.00270   0.00000  -0.00179  -0.00179   2.07310
   R35        2.86381   0.00693   0.00000   0.00479   0.00479   2.86861
   R36        2.06963  -0.00159   0.00000  -0.00105  -0.00105   2.06858
   R37        2.07232   0.00039   0.00000   0.00026   0.00026   2.07257
   R38        2.86324   0.00504   0.00000   0.00349   0.00349   2.86673
   R39        2.06792  -0.00361   0.00000  -0.00238  -0.00238   2.06554
   R40        2.07168  -0.00509   0.00000  -0.00337  -0.00337   2.06831
   R41        2.06533  -0.00502   0.00000  -0.00331  -0.00331   2.06202
   R42        2.06963  -0.00344   0.00000  -0.00227  -0.00227   2.06736
   R43        2.06847  -0.00326   0.00000  -0.00215  -0.00215   2.06632
   R44        2.06455  -0.00437   0.00000  -0.00288  -0.00288   2.06168
   R45        3.24553   0.00168   0.00000   0.00112   0.00112   3.24664
   R46        2.36559   0.07493   0.00000   0.03206   0.03208   2.39766
   R47        2.64037   0.03688   0.00000   0.02112   0.02112   2.66149
   R48        2.51259   0.02926   0.00000   0.01533   0.01537   2.52796
   R49        2.64907   0.00598   0.00000   0.00345   0.00345   2.65252
   R50        2.80007  -0.00844   0.00000  -0.00557  -0.00557   2.79450
   R51        2.83113  -0.02830   0.00000  -0.01912  -0.01912   2.81202
   R52        2.73990  -0.04251   0.00000  -0.02666  -0.02666   2.71324
   R53        2.55567   0.03373   0.00000   0.01766   0.01766   2.57333
   R54        2.08798  -0.01715   0.00000  -0.01150  -0.01150   2.07648
   R55        2.74895   0.00385   0.00000  -0.00955  -0.00976   2.73919
   R56        2.04212  -0.00053   0.00000  -0.00034  -0.00034   2.04178
   R57        2.80221  -0.04606   0.00000  -0.03067  -0.03067   2.77154
   R58        2.54749   0.04152   0.00000   0.02263   0.02269   2.57018
   R59        2.80204   0.00467   0.00000  -0.00948  -0.00976   2.79228
   R60        2.75503  -0.03143   0.00000  -0.01970  -0.01968   2.73535
   R61        2.52488   0.06260   0.00000   0.03118   0.03115   2.55603
   R62        2.54373   0.03055   0.00000   0.01574   0.01574   2.55947
   R63        2.74192  -0.04783   0.00000  -0.03013  -0.03013   2.71179
   R64        2.04528  -0.00302   0.00000  -0.00196  -0.00196   2.04332
   R65        2.75678  -0.05739   0.00000  -0.03654  -0.03654   2.72024
   R66        2.05030  -0.00603   0.00000  -0.00392  -0.00392   2.04637
   R67        2.74301  -0.05502   0.00000  -0.03466  -0.03466   2.70835
   R68        2.04618  -0.00410   0.00000  -0.00266  -0.00266   2.04352
   R69        2.72234  -0.04998   0.00000  -0.03055  -0.03054   2.69180
   R70        2.05295  -0.00527   0.00000  -0.00344  -0.00344   2.04952
   R71        2.04449  -0.00445   0.00000  -0.00288  -0.00288   2.04161
   R72        2.05173  -0.00399   0.00000  -0.00260  -0.00260   2.04914
   R73        2.07361  -0.00023   0.00000  -0.00015  -0.00015   2.07346
   R74        2.07031   0.00205   0.00000   0.00135   0.00135   2.07167
   R75        2.87460   0.00141   0.00000   0.00098   0.00098   2.87558
   R76        2.07792   0.00171   0.00000   0.00114   0.00114   2.07906
   R77        2.05669  -0.00257   0.00000  -0.00168  -0.00168   2.05501
   R78        2.88003   0.00137   0.00000   0.00096   0.00096   2.88099
[...]
 ! D103  D(29,27,33,35)         64.7655         -DE/DX =    0.0                 !
 ! D104  D(29,27,33,36)        -54.908          -DE/DX =    0.0                 !
 ! D105  D(5,30,37,38)          59.7183         -DE/DX =    0.0                 !
 ! D106  D(5,30,37,39)         179.467          -DE/DX =    0.0                 !
 ! D107  D(5,30,37,40)         -60.5595         -DE/DX =    0.0                 !
 ! D108  D(31,30,37,38)        179.795          -DE/DX =    0.0                 !
 ! D109  D(31,30,37,39)        -60.4564         -DE/DX =    0.0                 !
 ! D110  D(31,30,37,40)         59.5172         -DE/DX =    0.0                 !
 ! D111  D(32,30,37,38)        -62.8897         -DE/DX =    0.0                 !
 ! D112  D(32,30,37,39)         56.8589         -DE/DX =    0.0                 !
 ! D113  D(32,30,37,40)        176.8325         -DE/DX =    0.0                 !
 ! D114  D(1,42,50,48)         151.4224         -DE/DX =    0.0                 !
 ! D115  D(1,42,50,52)         -29.8495         -DE/DX =    0.0                 !
 ! D116  D(1,43,45,62)         118.2234         -DE/DX =    0.0                 !
 ! D117  D(1,43,45,64)         -59.1855         -DE/DX =    0.0                 !
 ! D118  D(46,43,45,62)        -44.7316         -DE/DX =    0.0                 !
 ! D119  D(46,43,45,64)        137.8595         -DE/DX =    0.0                 !
 ! D120  D(1,43,46,47)        -166.6674         -DE/DX =    0.0                 !
 ! D121  D(1,43,46,52)          15.0978         -DE/DX =    0.0                 !
 ! D122  D(45,43,46,47)         -3.974          -DE/DX =    0.0                 !
 ! D123  D(45,43,46,52)        177.7913         -DE/DX =    0.0                 !
 ! D124  D(66,44,51,48)          3.884          -DE/DX =    0.0                 !
 ! D125  D(66,44,51,60)       -176.0679         -DE/DX =    0.0                 !
 ! D126  D(69,44,51,48)       -172.2022         -DE/DX =    0.0                 !
 ! D127  D(69,44,51,60)          7.8459         -DE/DX =    0.0                 !
 ! D128  D(51,44,66,67)         37.1186         -DE/DX =    0.0                 !
 ! D129  D(51,44,66,68)        153.7875         -DE/DX =    0.0                 !
 ! D130  D(51,44,66,72)        -85.3901         -DE/DX =    0.0                 !
 ! D131  D(69,44,66,67)       -146.5469         -DE/DX =    0.0                 !
 ! D132  D(69,44,66,68)        -29.878          -DE/DX =    0.0                 !
 ! D133  D(69,44,66,72)         90.9444         -DE/DX =    0.0                 !
 ! D134  D(51,44,69,70)         33.4606         -DE/DX =    0.0                 !
 ! D135  D(51,44,69,71)        150.0355         -DE/DX =    0.0                 !
 ! D136  D(51,44,69,76)        -89.5398         -DE/DX =    0.0                 !
 ! D137  D(66,44,69,70)       -142.8474         -DE/DX =    0.0                 !
 ! D138  D(66,44,69,71)        -26.2725         -DE/DX =    0.0                 !
 ! D139  D(66,44,69,76)         94.1523         -DE/DX =    0.0                 !
 ! D140  D(43,45,62,54)       -177.5416         -DE/DX =    0.0                 !
 ! D141  D(43,45,62,63)          0.6355         -DE/DX =    0.0                 !
 ! D142  D(64,45,62,54)         -0.1359         -DE/DX =    0.0                 !
 ! D143  D(64,45,62,63)        178.0413         -DE/DX =    0.0                 !
 ! D144  D(43,45,64,56)        177.7963         -DE/DX =    0.0                 !
 ! D145  D(43,45,64,65)         -1.4087         -DE/DX =    0.0                 !
 ! D146  D(62,45,64,56)          0.3124         -DE/DX =    0.0                 !
 ! D147  D(62,45,64,65)       -178.8926         -DE/DX =    0.0                 !
 ! D148  D(43,46,52,50)          2.6788         -DE/DX =    0.0                 !
 ! D149  D(43,46,52,58)       -178.24           -DE/DX =    0.0                 !
 ! D150  D(47,46,52,50)       -175.5866         -DE/DX =    0.0                 !
 ! D151  D(47,46,52,58)          3.4946         -DE/DX =    0.0                 !
 ! D152  D(49,48,50,42)         -2.8471         -DE/DX =    0.0                 !
 ! D153  D(49,48,50,52)        178.3439         -DE/DX =    0.0                 !
 ! D154  D(51,48,50,42)        177.1745         -DE/DX =    0.0                 !
 ! D155  D(51,48,50,52)         -1.6345         -DE/DX =    0.0                 !
 ! D156  D(49,48,51,44)         -0.4058         -DE/DX =    0.0                 !
 ! D157  D(49,48,51,60)        179.5479         -DE/DX =    0.0                 !
 ! D158  D(50,48,51,44)        179.5711         -DE/DX =    0.0                 !
 ! D159  D(50,48,51,60)         -0.4753         -DE/DX =    0.0                 !
 ! D160  D(42,50,52,46)          3.0401         -DE/DX =    0.0                 !
 ! D161  D(42,50,52,58)       -176.0536         -DE/DX =    0.0                 !
 ! D162  D(48,50,52,46)       -178.2345         -DE/DX =    0.0                 !
 ! D163  D(48,50,52,58)          2.6717         -DE/DX =    0.0                 !
 ! D164  D(44,51,60,58)       -178.5218         -DE/DX =    0.0                 !
 ! D165  D(44,51,60,61)          2.0708         -DE/DX =    0.0                 !
 ! D166  D(48,51,60,58)          1.5241         -DE/DX =    0.0                 !
 ! D167  D(48,51,60,61)       -177.8833         -DE/DX =    0.0                 !
 ! D168  D(46,52,58,59)         -0.7758         -DE/DX =    0.0                 !
 ! D169  D(46,52,58,60)        179.1308         -DE/DX =    0.0                 !
 ! D170  D(50,52,58,59)        178.3572         -DE/DX =    0.0                 !
 ! D171  D(50,52,58,60)         -1.7363         -DE/DX =    0.0                 !
 ! D172  D(41,53,54,55)          0.1244         -DE/DX =    0.0                 !
 ! D173  D(41,53,54,62)        179.6176         -DE/DX =    0.0                 !
 ! D174  D(56,53,54,55)       -179.4646         -DE/DX =    0.0                 !
 ! D175  D(56,53,54,62)          0.0287         -DE/DX =    0.0                 !
 ! D176  D(41,53,56,57)          0.0759         -DE/DX =    0.0                 !
 ! D177  D(41,53,56,64)       -179.4438         -DE/DX =    0.0                 !
 ! D178  D(54,53,56,57)        179.6651         -DE/DX =    0.0                 !
 ! D179  D(54,53,56,64)          0.1454         -DE/DX =    0.0                 !
 ! D180  D(53,54,62,45)         -0.0322         -DE/DX =    0.0                 !
 ! D181  D(53,54,62,63)       -178.2106         -DE/DX =    0.0                 !
 ! D182  D(55,54,62,45)        179.4596         -DE/DX =    0.0                 !
 ! D183  D(55,54,62,63)          1.2812         -DE/DX =    0.0                 !
 ! D184  D(53,56,64,45)         -0.3171         -DE/DX =    0.0                 !
 ! D185  D(53,56,64,65)        178.8719         -DE/DX =    0.0                 !
 ! D186  D(57,56,64,45)       -179.8343         -DE/DX =    0.0                 !
 ! D187  D(57,56,64,65)         -0.6453         -DE/DX =    0.0                 !
 ! D188  D(52,58,60,51)         -0.4059         -DE/DX =    0.0                 !
 ! D189  D(52,58,60,61)        179.0136         -DE/DX =    0.0                 !
 ! D190  D(59,58,60,51)        179.4995         -DE/DX =    0.0                 !
 ! D191  D(59,58,60,61)         -1.081          -DE/DX =    0.0                 !
 ! D192  D(44,66,72,73)       -179.7309         -DE/DX =    0.0                 !
 ! D193  D(44,66,72,74)        -59.6522         -DE/DX =    0.0                 !
 ! D194  D(44,66,72,75)         60.2762         -DE/DX =    0.0                 !
 ! D195  D(67,66,72,73)         58.0212         -DE/DX =    0.0                 !
 ! D196  D(67,66,72,74)        178.0999         -DE/DX =    0.0                 !
 ! D197  D(67,66,72,75)        -61.9717         -DE/DX =    0.0                 !
 ! D198  D(68,66,72,73)        -59.8555         -DE/DX =    0.0                 !
 ! D199  D(68,66,72,74)         60.2232         -DE/DX =    0.0                 !
 ! D200  D(68,66,72,75)       -179.8484         -DE/DX =    0.0                 !
 ! D201  D(44,69,76,77)         60.0422         -DE/DX =    0.0                 !
 ! D202  D(44,69,76,78)       -179.5029         -DE/DX =    0.0                 !
 ! D203  D(44,69,76,79)        -59.5466         -DE/DX =    0.0                 !
 ! D204  D(70,69,76,77)        -62.8302         -DE/DX =    0.0                 !
 ! D205  D(70,69,76,78)         57.6247         -DE/DX =    0.0                 !
 ! D206  D(70,69,76,79)        177.581          -DE/DX =    0.0                 !
 ! D207  D(71,69,76,77)        179.7677         -DE/DX =    0.0                 !
 ! D208  D(71,69,76,78)        -59.7774         -DE/DX =    0.0                 !
 ! D209  D(71,69,76,79)         60.1789         -DE/DX =    0.0                 !
 --------------------------------------------------------------------------------
 GradGradGradGradGradGradGradGradGradGradGradGradGradGradGradGradGradGrad

 Largest change from initial coordinates is atom    2       3.781 Angstoms.
 Leave Link  103 at Mon Sep 15 20:03:33 2025, MaxMem=    33554432 cpu:         0.1
 (Enter /appl/g09.shchoi/G09Files/g09/l202.exe)
 Stoichiometry    C34H36Cl2CuN4O2(2)
 Framework group  C1[X(C34H36Cl2CuN4O2)]
 Deg. of freedom   231
 Full point group                 C1      NOp   1
 RotChk:  IX=2 Diff= 1.91D-15
 Largest Abelian subgroup         C1      NOp   1
 Largest concise Abelian subgroup C1      NOp   1
                         Standard orientation:                         
 ---------------------------------------------------------------------
 Center     Atomic      Atomic             Coordinates (Angstroms)
 Number     Number       Type             X           Y           Z
 ---------------------------------------------------------------------
      1         29           0       -0.001519   -0.011857    0.885347
      2         17           0       -6.146421   -3.494279    0.930575
      3          8           0        1.786719   -0.430939    1.092444
      4          7           0       -0.450511   -2.027717    0.550548
      5          7           0        5.942052   -1.805908   -0.646605
      6          6           0       -1.787270   -2.407874    0.616526
      7          6           0        0.440794   -2.781697   -0.022137
      8          1           0        0.119301   -3.753314   -0.409568
      9          6           0        3.792690   -1.120223    0.187858
     10          1           0        4.190436   -0.218764    0.623159
     11          6           0        2.415675   -1.308968    0.393624
     12          6           0        4.602776   -2.026287   -0.486098
     13          6           0        1.808349   -2.489207   -0.154889
     14          6           0       -4.470954   -3.073556    0.806749
     15          6           0       -3.801114   -3.276127   -0.387754
     16          1           0       -4.324018   -3.684756   -1.238926
     17          6           0       -3.819545   -2.534480    1.906603
     18          1           0       -4.358231   -2.374518    2.827764
     19          6           0        2.645139   -3.402434   -0.830373
     20          1           0        2.193747   -4.296123   -1.240743
     21          6           0        3.980794   -3.198058   -0.996946
     22          1           0        4.549906   -3.932570   -1.541126
     23          6           0       -2.462147   -2.944424   -0.480427
     24          1           0       -1.941887   -3.076775   -1.418003
     25          6           0       -2.485726   -2.200346    1.807427
     26          1           0       -1.963276   -1.764420    2.643729
     27          6           0        6.814942   -2.803209   -1.221962
     28          1           0        6.479972   -3.793411   -0.905258
     29          1           0        7.815661   -2.655448   -0.803960
     30          6           0        6.508540   -0.493491   -0.412814
     31          1           0        7.596087   -0.589411   -0.437960
     32          1           0        6.234367   -0.146531    0.587954
     33          6           0        6.898008   -2.743875   -2.749387
     34          1           0        5.904611   -2.800866   -3.186928
     35          1           0        7.493942   -3.573940   -3.120770
     36          1           0        7.363689   -1.816248   -3.071538
     37          6           0        6.069543    0.541151   -1.448910
     38          1           0        4.988070    0.648678   -1.441965
     39          1           0        6.517857    1.502663   -1.215059
     40          1           0        6.381075    0.244041   -2.446948
     41         17           0        6.178637    3.376247    1.000068
     42          8           0       -1.802095    0.389171    0.971621
     43          7           0        0.467446    1.992363    0.538949
     44          7           0       -5.843824    1.748028   -1.028487
     45          6           0        1.804969    2.365121    0.632690
     46          6           0       -0.403060    2.751093   -0.060124
     47          1           0       -0.064739    3.723491   -0.430738
     48          6           0       -3.755315    1.076211   -0.040645
     49          1           0       -4.163538    0.155133    0.340932
     50          6           0       -2.394980    1.273657    0.250319
     51          6           0       -4.527773    1.980642   -0.759453
     52          6           0       -1.763137    2.460858   -0.253638
     53          6           0        4.494719    2.993728    0.859183
     54          6           0        3.845677    3.199342   -0.346156
     55          1           0        4.386562    3.593557   -1.192671
     56          6           0        3.817408    2.477419    1.954240
     57          1           0        4.338909    2.317919    2.885371
     58          6           0       -2.567245    3.380535   -0.960561
     59          1           0       -2.102470    4.289544   -1.319033
     60          6           0       -3.888790    3.169548   -1.207384
     61          1           0       -4.441818    3.924676   -1.739768
     62          6           0        2.504074    2.885491   -0.456953
     63          1           0        2.000411    3.016965   -1.403701
     64          6           0        2.480053    2.162519    1.837699
     65          1           0        1.938664    1.743319    2.670343
     66          6           0       -6.533303    0.586083   -0.511135
     67          1           0       -6.178437    0.369952    0.498340
     68          1           0       -7.596748    0.829998   -0.438982
     69          6           0       -6.616428    2.594382   -1.910604
     70          1           0       -5.979230    2.980010   -2.709842
     71          1           0       -7.386505    1.977581   -2.382042
     72          6           0       -6.348839   -0.640617   -1.404504
     73          1           0       -6.883303   -1.489002   -0.987036
     74          1           0       -6.730813   -0.445035   -2.404282
     75          1           0       -5.294717   -0.894234   -1.481454
     76          6           0       -7.284779    3.750660   -1.164159
     77          1           0       -6.537771    4.376401   -0.683111
     78          1           0       -7.862562    4.359283   -1.855055
     79          1           0       -7.952421    3.367938   -0.395898
 ---------------------------------------------------------------------
 Rotational constants (GHZ):      0.1092803      0.0387983      0.0314095
 Leave Link  202 at Mon Sep 15 20:03:33 2025, MaxMem=    33554432 cpu:         0.0
 (Enter /appl/g09.shchoi/G09Files/g09/l601.exe)
 Leave Link  601 at Mon Sep 15 20:03:33 2025, MaxMem=    33554432 cpu:         0.0
 (Enter /appl/g09.shchoi/G09Files/g09/l9999.exe)
 1\1\GINC-MASTER\FOpt\UExternal='/home/rxn_grp/programs/xtb-gaussian'\Z
 DO\C34H36Cl2Cu1N4O2(2)\RXN_GRP\15-Sep-2025\0\\#p external='/home/rxn_g
 rp/programs/xtb-gaussian' /sdd opt(nomicro)\\R\\0,2\Cu,-0.5179489207,-
 0.378400143,-0.8386124883\Cl,-4.9381335593,-5.3218613991,1.5931120376\
 O,-0.5830365408,1.0014326345,-2.0666753771\N,-2.6079487434,-0.46978911
 11,-0.808187914\N,-1.507451823,5.4732404324,-3.2199404193\C,-3.1937224
 365,-1.5938394766,-0.2344499578\C,-3.2860466686,0.6223829368,-1.003693
 1445\H,-4.3504593999,0.6185250995,-0.7497065844\C,-1.0653064833,3.1978
 905106,-2.5768669275\H,-0.0476344484,3.2410263217,-2.9272950456\C,-1.4
 481118363,1.9533766229,-2.0488713502\C,-1.9223211029,4.286760145,-2.68
 31548797\C,-2.7915961898,1.8133597675,-1.5608941102\C,-4.2651360323,-3
 .887363988,0.8939554558\C,-4.5537815871,-2.6538181669,1.4521725497\H,-
 5.1867403471,-2.5890649071,2.323992354\C,-3.4406683845,-3.9915850736,-
 0.21690335\H,-3.2182223565,-4.9613028456,-0.6346020579\C,-3.6512598625
 ,2.9254714988,-1.6819988216\H,-4.6662501599,2.8236640479,-1.3210727401
 \C,-3.2535804052,4.1130935077,-2.2157546175\H,-3.9629233372,4.92222279
 15,-2.2566299841\C,-4.0192485117,-1.5107498041,0.8872686881\H,-4.22090
 03867,-0.5482825869,1.3347394999\C,-2.9057813835,-2.8492257115,-0.7731
 997363\H,-2.2489942533,-2.9072385262,-1.6262245933\C,-2.4251768816,6.5
 627359341,-3.4615206151\H,-3.3881196251,6.1530245315,-3.7743830647\H,-
 2.0385322168,7.1478537206,-4.3018423594\C,-0.0971763684,5.7503311347,-
 3.3997970527\H,-0.0087156728,6.667172361,-3.986455374\H,0.3656285267,4
 .9459116378,-3.9792890437\C,-2.6176407857,7.486727967,-2.2562631528\H,
 -2.9183683991,6.9145187809,-1.3823836871\H,-3.3851952507,8.2252739112,
 -2.4741646674\H,-1.6940001226,8.010311067,-2.0241432438\C,0.652170516,
 5.9228292567,-2.0786528235\H,0.5728580771,5.0207032261,-1.4777591667\H
 ,1.7018876202,6.1181820849,-2.2789186898\H,0.2445758127,6.7543133952,-
 1.5095260519\Cl,3.844441353,4.5086047443,-3.4412024247\O,-0.4217343281
 ,-1.9324142028,0.1544252225\N,1.4463407661,0.11269329,-0.3314514577\N,
 -0.140329722,-4.2090902548,4.2678249972\C,2.052695879,1.1479850305,-1.
 0365816043\C,1.9299112454,-0.3042511577,0.8019756772\H,2.8668316532,0.
 1393214003,1.1523987765\C,-0.2642016688,-3.0083588537,2.1864933759\H,-
 1.1613921404,-3.5181599745,1.877002809\C,0.2101173279,-2.0570681666,1.
 2676777933\C,0.3567411265,-3.2836546012,3.398935735\C,1.3824888011,-1.
 3058655725,1.6196494698\C,3.1612674232,3.2141017589,-2.5142266195\C,3.
 0412970335,3.3457645178,-1.1414019739\H,3.3696830707,4.2502330092,-0.6
 528860724\C,2.7341298177,2.0628507871,-3.1597119716\H,2.8296025209,1.9
 777842153,-4.2311868465\C,2.0148667553,-1.6146734433,2.8431164389\H,2.
 9140108869,-1.0705908566,3.1006593234\C,1.5416772679,-2.558105733,3.70
 2154203\H,2.0875436118,-2.7500986214,4.610262787\C,2.4884336169,2.3140
 128465,-0.4062108346\H,2.3661223145,2.4238588459,0.6616223338\C,2.1799
 805723,1.03788263,-2.4224053857\H,1.8248744081,0.141923344,-2.90539898
 14\C,-1.2957356686,-5.0165734202,3.9420046016\H,-1.2701188544,-5.28073
 17195,2.8831156804\H,-1.2283919302,-5.9466243023,4.5130438931\C,0.3960
 050852,-4.3901293178,5.5985891518\H,0.7406984358,-3.432271257,5.995080
 4011\H,-0.4154315004,-4.7334364981,6.2462210374\C,-2.6086294149,-4.306
 6963387,4.272628063\H,-3.450673264,-4.9442370415,4.0192664461\H,-2.657
 1334069,-4.0694456588,5.3333222649\H,-2.6878057446,-3.3812114256,3.708
 1586942\C,1.5324843248,-5.4139885696,5.6298853366\H,2.3503126242,-5.09
 5542509,4.989003775\H,1.9045927431,-5.5307392645,6.6445262017\H,1.1800
 484033,-6.3797244747,5.2754988656\\Version=ES64L-G09RevD.01\HF=-124.08
 95791\S2=0.\S2-1=0.\S2A=0.\RMSD=0.000e+00\RMSF=5.957e-06\Dipole=-0.275
 4762,0.9661171,1.5098513\PG=C01 [X(C34H36Cl2Cu1N4O2)]\\@


 KNOWLEDGE IS OF TWO KINDS:  WE KNOW A SUBJECT OURSELVES OR WE KNOW 
 WHERE WE CAN FIND INFORMATION UPON IT.

                                    -- SAMUEL JOHNSON
 Job cpu time:       0 days  0 hours  0 minutes  8.7 seconds.
 File lengths (MBytes):  RWF=     17 Int=      0 D2E=      0 Chk=      6 Scr=      1
 Normal termination of Gaussian 09 at Mon Sep 15 20:03:33 2025.
