
                                 *****************
                                 * O   R   C   A *
                                 *****************

                                            #,                                       
                                            ###                                      
                                            ####                                     
                                            #####                                    
                                            ######                                   
                                           ########,                                 
                                     ,,################,,,,,                         
                               ,,#################################,,                 
                          ,,##########################################,,             
                       ,#########################################, ''#####,          
                    ,#############################################,,   '####,        
                  ,##################################################,,,,####,       
                ,###########''''           ''''###############################       
              ,#####''   ,,,,##########,,,,          '''####'''          '####       
            ,##' ,,,,###########################,,,                        '##       
           ' ,,###''''                  '''############,,,                           
         ,,##''                                '''############,,,,        ,,,,,,###''
      ,#''                                            '''#######################'''  
     '                                                          ''''####''''         
             ,#######,   #######,   ,#######,      ##                                
            ,#'     '#,  ##    ##  ,#'     '#,    #''#        ,####,   ,####,        
            ##       ##  ##   ,#'  ##            #'  '#       #'       #'  '#        
            ##       ##  #######   ##           ,######,      #####,   #    #        
            '#,     ,#'  ##    ##  '#,     ,#' ,#      #,     #,   #   #,  ,#        
             '#######'   ##     ##  '#######'  #'      '#     '####' # '####'        



                #########################################################
                #                        -***-                          #
                #          Department of theory and spectroscopy        #
                #                                                       #
                #                      Frank Neese                      #
                #                                                       #
                #     Directorship, Architecture, Infrastructure        #
                #                    SHARK, DRIVERS                     #
                #        Core code/Algorithms in most modules           #
                #                                                       #
                #        Max Planck Institute fuer Kohlenforschung      #
                #                Kaiser Wilhelm Platz 1                 #
                #                 D-45470 Muelheim/Ruhr                 #
                #                      Germany                          #
                #                                                       #
                #                  All rights reserved                  #
                #                        -***-                          #
                #########################################################


                         Program Version 6.0.1  -  RELEASE   -


 With contributions from (in alphabetic order):
[Max-Planck-Institut fuer Kohlenforschung]                               
  Daniel Aravena         : Magnetic Suceptibility                        
  Michael Atanasov       : Ab Initio Ligand Field Theory (pilot matlab implementation)
  Alexander A. Auer      : GIAO ZORA, VPT2 properties, NMR spectrum      
  Ute Becker             : All parallelization in ORCA, NUMFREQ, NUMCALC 
  Giovanni Bistoni       : ED, misc. LED, open-shell LED, HFLD           
  Martin Brehm           : Molecular dynamics                            
  Dmytro Bykov           : pre 5.0 version of the SCF Hessian            
  Marcos Casanova-Páez   : Triplet and SCS-CIS(D). UHF-(DLPNO)-IP/EA/STEOM-CCSD. UHF-CVS-IP/STEOM-CCSD   
  Vijay G. Chilkuri      : MRCI spin determinant printing, contributions to CSF-ICE 
  Pauline Colinet        : FMM embedding                                 
  Dipayan Datta          : RHF DLPNO-CCSD density                        
  Achintya Kumar Dutta   : EOM-CC, STEOM-CC                              
  Nicolas Foglia         : Exact transition moments, OPA infrastructure, MCD improvements    
  Dmitry Ganyushin       : Spin-Orbit,Spin-Spin,Magnetic field MRCI      
  Miquel Garcia-Rates    : C-PCM and meta-GGA Hessian, CCSD/C-PCM, Gaussian charge scheme 
  Tiago L. C. Gouveia    : GS-ROHF, GS-ROCIS                             
  Yang Guo               : DLPNO-NEVPT2, F12-NEVPT2, CIM, IAO-localization        
  Andreas Hansen         : Spin unrestricted coupled pair/coupled cluster methods 
  Ingolf Harden          : AUTO-CI MPn and infrastructure                
  Benjamin Helmich-Paris : MC-RPA, TRAH-(SCF,CASSCF), AVAS, COSX integrals, SCF dyn. polar. 
  Lee Huntington         : MR-EOM, pCC                                   
  Robert Izsak           : Overlap fitted RIJCOSX, COSX-SCS-MP3, EOM     
  Riya Kayal             : Wick's Theorem for AUTO-CI, AUTO-CI UHF-CCSDT 
  Emily Kempfer          : AUTO-CI, RHF CISDT and CCSDT                  
  Christian Kollmar      : KDIIS, OOCD, Brueckner-CCSD(T), CCSD density, CASPT2, CASPT2-K, improved NEVPT2 
  Axel Koslowski         : Symmetry handling                             
  Simone Kossmann        : meta-GGA functionals, TD-DFT gradient, OOMP2, (MP2 Hessian; deprecated post 5.0) 
  Lucas Lang             : DCDCAS                                        
  Marvin Lechner         : AUTO-CI (C++ implementation), FIC-MRCC        
  Spencer Leger          : CASSCF response                               
  Dagmar Lenk            : GEPOL surface, SMD, ORCA-2-JSON               
  Dimitrios Liakos       : Extrapolation schemes; Compound Job, initial MDCI parallelization 
  Dimitrios Manganas     : Further ROCIS development; embedding schemes. LFT, Crystal Embedding 
  Dimitrios Pantazis     : SARC Basis sets                               
  Anastasios Papadopoulos: AUTO-CI, single reference methods and gradients 
  Taras Petrenko         : pre 6.0 DFT Hessian and TD-DFT gradient, (ASA, deprecated), ECA, 1-Electron XAS/XES, NRVS 
  Peter Pinski           : DLPNO-MP2, DLPNO-MP2 Gradient                 
  Christoph Reimann      : Effective Core Potentials                     
  Marius Retegan         : Local ZFS, SOC                                
  Christoph Riplinger    : Optimizer, TS searches, QM/MM, DLPNO-CCSD(T), (RO)-DLPNO pert. Triples 
  Michael Roemelt        : Original ROCIS implementation                 
  Masaaki Saitow         : Open-shell DLPNO-CCSD energy and density      
  Barbara Sandhoefer     : DKH picture change effects                    
  Kantharuban Sivalingam : CASSCF convergence/infrastructure, NEVPT2 and variants, FIC-MRCI 
  Bernardo de Souza      : ESD, SOC TD-DFT                               
  Georgi L. Stoychev     : AutoAux, RI-MP2 NMR, DLPNO-MP2 response, X2C  
  Van Anh Tran           : RI-MP2 g-tensors                              
  Willem Van den Heuvel  : Paramagnetic NMR                              
  Zikuan Wang            : NOTCH, Electric field optimization            
  Frank Wennmohs         : Technical directorship and infrastructure     
  Hang Xu                : AUTO-CI-Response properties                   
                                                                         
[FACCTs GmbH]                                                            
  Markus Bursch, Miquel Garcia-Rates, Christoph Riplinger, Bernardo de Souza, Georgi L. Stoychev 
                                                                 
  APM, Basis sets (HGBS, AHGBS, def-TZVP (Ac-Lr), def2-XVPD (La-Lu)), CI-OPT, improved COSX, DLPNO-Multilevel,           
  DOCKER, DRACO, updates on ESD, GOAT, IRC, LR-CPCM, MBIS, meta-GGA TD-DFT gradient, ML-optimized integration grids, 
  MM, NACMEs, nearIR, NEB, NEB-TS, NL-DFT gradient (VV10), 2- and 3-layer-ONIOM, interface openCOSMO-RS, QMMM,   
  Crystal-QMMM, SF, symmetry and pop. for TD-DFT, r2SCAN hybrids, SOLVATOR                                   
                                                                         
[Other institutions]                                                     
  V. Asgeirsson          : NEB                                           
  Christoph Bannwarth    : sTDA-DFT, sTD-DFT, PBEh-3c, B97-3c, D3        
  Sebastian Ehlert       : rSCAN, r2SCAN, r2SCAN-3c, D4, dhf basis sets  
  Marvin Friede          : D4 for Fr, Ra, Ac-Lr                          
  Lars Goerigk           : TD-DFT with DH, B97 family of functionals     
  Stefan Grimme          : VdW corrections, initial TS optimization, DFT functionals, gCP, sTDA/sTD-DF 
  Waldemar Hujo          : DFT-NL                                        
  H. Jonsson             : NEB                                           
  Holger Kruse           : gCP                                           
  Marcel Mueller         : wB97X-3c, vDZP basis set                      
  Hagen Neugebauer       : wr2SCAN                                       
  Tobias Risthaus        : range-separated hybrid DFT                    
  Lukas Wittmann         : regularized MP2, r2SCAN double-hybrids, wr2SCAN        
                                                                         
We gratefully acknowledge several colleagues who have allowed us to      
interface, adapt or use parts of their codes:                            
  Ed Valeev, F. Pavosevic, A. Kumar             : LibInt (2-el integral package), F12 methods 
  Garnet Chan, S. Sharma, J. Yang, R. Olivares  : DMRG                   
  Ulf Ekstrom                                   : XCFun DFT Library      
  Mihaly Kallay                                 : mrcc  (arbitrary order and MRCC methods)
  Frank Weinhold                                : gennbo (NPA and NBO analysis)           
  Simon Mueller                                 : openCOSMO-RS                            
  Christopher J. Cramer and Donald G. Truhlar   : smd solvation model                     
  S Lehtola, MJT Oliveira, MAL Marques          : LibXC Library                           
  Liviu Ungur et al                             : ANISO software                          


 Your calculation uses the libint2 library for the computation of 2-el integrals
 For citations please refer to: http://libint.valeyev.net

 Your ORCA version has been built with support for libXC version: 6.2.2
 For citations please refer to: https://libxc.gitlab.io

 This ORCA versions uses:
   CBLAS   interface :  Fast vector & matrix operations
   LAPACKE interface :  Fast linear algebra routines
   SCALAPACK package :  Parallel linear algebra routines
   Shared memory     :  Shared parallel matrices
   BLAS/LAPACK       :  OpenBLAS 0.3.27  USE64BITINT DYNAMIC_ARCH NO_AFFINITY Haswell SINGLE_THREADED
        Core in use  :  Haswell
   Copyright (c) 2011-2014, The OpenBLAS Project


Your calculation utilizes the semiempirical GFN2-xTB method
Please cite in your paper:
C. Bannwarth, Ehlert S., S. Grimme,  J. Chem. Theory Comput., 15, (2019), 1652.
   

================================================================================

cite the ECPs for Rh [Def2-ECP] as follows:
Ce-Yb(ecp-28): M. Dolg, H. Stoll, H.Preuss, J. Chem. Phys., 1989, 90, 1730-1734.
Y-Cd(ecp-28), Hf-Hg(ecp-46): D. Andrae,U. Haeussermann, M. Dolg, H. Stoll, H. Preuss, Theor. Chim. Acta, 1990, 77, 123-141.
In-Sb(ecp-28), Tl-Bi(ecp-46): B. Metz, H. Stoll, M. Dolg, J. Chem. Phys., 2000, 113, 2563-2569.
Te-Xe(ecp-28), Po-Rn(ecp-46): K. A. Peterson, D. Figgen, E. Goll, H. Stoll, M. Dolg, J. Chem. Phys., 2003, 119, 11113-11123.
Rb(ecp-28), Cs(ecp-46): T. Leininger, A. Nicklass, W. Kuechle, H. Stoll, M. Dolg, A. Bergner, Chem. Phys. Lett., 1996, 255, 274-280.
Sr(ecp-28), Ba(ecp-46): M. Kaupp, P. V. Schleyer, H. Stoll and H. Preuss, J. Chem. Phys., 1991, 94, 1360-1366.
La(ecp-46): M. Dolg, H. Stoll, A. Savin, H. Preuss, Theor. Chim. Acta, 1989, 75, 173-194.
Lu(ecp-28): X. Cao, M. Dolg, J. Chem. Phys., 2001, 115, 7348-7355.

ECP parameters for Rh [Def2-ECP] have been obtained from:
TURBOMOLE (7.0.2)

================================================================================
                                        WARNINGS
                       Please study these warnings very carefully!
================================================================================


WARNING: Geometry Optimization
  ===> : Switching off AutoStart
         For restart on a previous wavefunction, please use MOREAD

WARNING: Found dipole moment calculation with XTB calculation
  ===> : Switching off dipole moment calculation


================================================================================
                                       INPUT FILE
================================================================================
NAME = final_relax_0.com
|  1> ! XTB2 opt
|  2> 
|  3> *xyz 0 1
|  4> Rh 0.0 0.0 0.0
|  5> C -0.31254371277976717 1.142444338023903 3.7765369064760703
|  6> C 0.6672930504021346 0.46952280813448993 2.8123557837199304
|  7> C 0.002508501675937237 0.021006082978267924 1.52585335202871
|  8> O -0.8641632104638051 -0.8380723912542262 1.5605708639501459
|  9> H -0.8082023189119462 2.0094340832955995 3.29103663126867
| 10> H 0.23721402494073088 1.5120407078967926 4.67046483387307
| 11> H -1.0833034706443234 0.4205861237427933 4.121577209840093
| 12> H 1.4743039649807443 1.1906443643238387 2.5652130032263494
| 13> H 1.130122020928179 -0.4038357282067846 3.3217169953770336
| 14> C -0.0001584835974515559 0.0 -1.5290405936192368
| 15> O -0.013294370967407706 -0.007367590289375156 -2.686092937795506
| 16> C 0.00012157775142467639 1.5292639628272044 -0.00011514195962307313
| 17> O 0.010603856256288959 2.6863228267422716 -0.010146175433231222
| 18> H 0.0 -1.2109999999999999 0.0
| 19> C 1.5292680440028497 0.0 0.00016884986610307947
| 20> O 2.6863269536043624 0.0009218657514197005 0.014647291088554651
| 21> H -1.2109999999999999 0.0 0.0
| 22> **                         ****END OF INPUT****
================================================================================

                       *****************************
                       * Geometry Optimization Run *
                       *****************************

Geometry optimization settings:
Update method            Update   .... BFGS
Choice of coordinates    CoordSys .... (2022) Redundant Internals
Initial Hessian          InHess   .... Almloef's Model
Max. no of cycles        MaxIter  .... 54

Convergence Tolerances:
Energy Change            TolE     ....  5.0000e-06 Eh
Max. Gradient            TolMAXG  ....  3.0000e-04 Eh/bohr
RMS Gradient             TolRMSG  ....  1.0000e-04 Eh/bohr
Max. Displacement        TolMAXD  ....  4.0000e-03 bohr
RMS Displacement         TolRMSD  ....  2.0000e-03 bohr
Strict Convergence                .... False

------------------------------------------------------------------------------
                        ORCA OPTIMIZATION COORDINATE SETUP
------------------------------------------------------------------------------

The optimization will be done in redundant internal coordinates (2022)
Making redundant internal coordinates   ...  (2022 redundants) done
Evaluating the initial hessian          ...  (Almloef) done
Evaluating the coordinates              ...  done
Calculating the B-matrix                .... done
Calculating the G-matrix                .... done
Diagonalizing the G-matrix              .... done
The first mode is                       ....   65
The number of degrees of freedom        ....   48

    -----------------------------------------------------------------
                    Redundant Internal Coordinates


    -----------------------------------------------------------------
         Definition                    Initial Value    Approx d2E/dq
    -----------------------------------------------------------------
      1. B(C   2,C   1)                  1.5305         0.372836   
      2. B(C   3,C   2)                  1.5160         0.393320   
      3. B(C   3,Rh  0)                  1.5260         3.836048   
      4. B(O   4,C   3)                  1.2208         1.041912   
      5. B(O   4,Rh  0)                  1.9709         0.670162   
      6. B(H   5,C   1)                  1.1104         0.334061   
      7. B(H   6,C   1)                  1.1126         0.331376   
      8. B(H   7,C   1)                  1.1109         0.333429   
      9. B(H   8,C   2)                  1.1101         0.334446   
     10. B(H   9,C   2)                  1.1119         0.332213   
     11. B(C  10,Rh  0)                  1.5290         3.793438   
     12. B(O  11,C  10)                  1.1572         1.316353   
     13. B(O  11,Rh  0)                  2.6861         0.048428   
     14. B(C  12,Rh  0)                  1.5293         3.790326   
     15. B(O  13,Rh  0)                  2.6864         0.048388   
     16. B(O  13,C  12)                  1.1571         1.316355   
     17. B(H  14,Rh  0)                  1.2110         2.336147   
     18. B(C  15,Rh  0)                  1.5293         3.790269   
     19. B(O  16,C  15)                  1.1571         1.316355   
     20. B(O  16,Rh  0)                  2.6864         0.048387   
     21. B(H  17,Rh  0)                  1.2110         2.336147   
     22. A(C  12,Rh  0,C  15)           89.9954         1.133578   
     23. A(C  10,Rh  0,C  15)           90.0123         1.133772   
     24. A(C   3,Rh  0,O  16)           89.5932         0.477070   
     25. A(O  13,Rh  0,C  15)           89.7739         0.476019   
     26. A(O   4,Rh  0,O  16)          115.7394         0.348941   
     27. A(O  11,Rh  0,C  15)           90.2899         0.476092   
     28. A(H  14,Rh  0,O  16)           90.0197         0.403608   
     29. A(O  13,Rh  0,O  16)           89.7554         0.232391   
     30. A(C   3,Rh  0,O   4)           38.2656         0.792499   
     31. A(H  14,Rh  0,C  15)           90.0000         0.938139   
     32. A(C  12,Rh  0,O  16)           89.9758         0.476019   
     33. A(O   4,Rh  0,H  17)           63.9945         0.659326   
     34. A(O  13,Rh  0,H  17)           90.2262         0.403609   
     35. A(C  10,Rh  0,O  16)           90.3183         0.476091   
     36. A(O  11,Rh  0,C  12)           90.1529         0.476093   
     37. A(C  10,Rh  0,H  17)           89.9941         0.938300   
     38. A(O   4,Rh  0,C  10)          142.3496         0.790723   
     39. A(O   4,Rh  0,O  11)          142.0408         0.348991   
     40. A(C   3,Rh  0,H  17)           90.0942         0.940450   
     41. A(O  11,Rh  0,H  17)           89.7164         0.403669   
     42. A(C   3,Rh  0,C  12)           89.2156         1.136420   
     43. A(O   4,Rh  0,C  12)          115.1705         0.790592   
     44. A(C  10,Rh  0,C  12)           89.9957         1.133776   
     45. A(C  12,Rh  0,H  17)           90.0046         0.938142   
     46. A(C   3,Rh  0,O  13)           89.4273         0.477072   
     47. A(O   4,Rh  0,O  13)          115.4634         0.348942   
     48. A(C  10,Rh  0,O  13)           89.7836         0.476092   
     49. A(O  11,Rh  0,O  13)           89.9419         0.232419   
     50. A(H  14,Rh  0,H  17)           90.0000         0.779269   
     51. A(O  11,Rh  0,O  16)           90.5960         0.232418   
     52. A(C   3,Rh  0,H  14)           90.7887         0.940450   
     53. A(O   4,Rh  0,H  14)           64.8355         0.659326   
     54. A(C  10,Rh  0,H  14)           90.0000         0.938300   
     55. A(O  11,Rh  0,H  14)           89.8428         0.403669   
     56. A(C   3,Rh  0,C  15)           89.8995         1.136417   
     57. A(O   4,Rh  0,C  15)          115.9999         0.790590   
     58. A(C   2,C   1,H   5)          110.7079         0.320251   
     59. A(H   6,C   1,H   7)          108.0058         0.283657   
     60. A(H   5,C   1,H   7)          109.4770         0.284013   
     61. A(C   2,C   1,H   7)          110.7402         0.320152   
     62. A(H   5,C   1,H   6)          108.2082         0.283741   
     63. A(C   2,C   1,H   6)          109.6249         0.319829   
     64. A(C   1,C   2,H   9)          108.8579         0.319961   
     65. A(C   3,C   2,H   8)          108.7866         0.323129   
     66. A(C   1,C   2,H   8)          108.6653         0.320312   
     67. A(C   1,C   2,C   3)          112.5783         0.366444   
     68. A(H   8,C   2,H   9)          108.0355         0.283903   
     69. A(C   3,C   2,H   9)          109.8092         0.322774   
     70. A(C   2,C   3,O   4)          119.6947         0.436220   
     71. A(Rh  0,C   3,C   2)          148.5768         0.632083   
     72. A(Rh  0,C   3,O   4)           91.0074         0.760487   
     73. A(Rh  0,O   4,C   3)           50.7270         0.538782   
     74. L(Rh  0,C  10,O  11,O  13, 2) 180.7414         0.795192   
     75. L(Rh  0,C  10,O  11,O  13, 1) 180.3653         0.795192   
     76. L(Rh  0,C  12,O  13,O  16, 2) 179.4332         0.795061   
     77. L(Rh  0,C  12,O  13,O  16, 1) 179.4870         0.795061   
     78. L(Rh  0,C  15,O  16,O  13, 2) 179.1839         0.795058   
     79. L(Rh  0,C  15,O  16,O  13, 1) 179.9545         0.795058   
     80. D(C   3,C   2,C   1,H   5)    -56.9101         0.011102   
     81. D(C   3,C   2,C   1,H   7)     64.7113         0.011102   
     82. D(H   8,C   2,C   1,H   5)     63.6607         0.011102   
     83. D(C   3,C   2,C   1,H   6)   -176.2145         0.011102   
     84. D(H   8,C   2,C   1,H   7)   -174.7178         0.011102   
     85. D(H   8,C   2,C   1,H   6)    -55.6436         0.011102   
     86. D(O   4,C   3,Rh  0,C  12)    134.7632         0.100614   
     87. D(O   4,C   3,C   2,H   8)    175.6254         0.011499   
     88. D(C   2,C   3,Rh  0,O  16)     33.0107         0.100614   
     89. D(C   2,C   3,Rh  0,C  15)     33.0262         0.100614   
     90. D(O   4,C   3,C   2,H   9)     57.5828         0.011499   
     91. D(C   2,C   3,Rh  0,H  17)   -146.9739         0.100614   
     92. D(O   4,C   3,Rh  0,O  13)    134.9852         0.100614   
     93. D(C   2,C   3,Rh  0,O   4)    168.2662         0.100614   
     94. D(Rh  0,C   3,C   2,C   1)    129.6635         0.011499   
     95. D(C   2,C   3,Rh  0,H  14)    123.0248         0.100614   
     96. D(O   4,C   3,Rh  0,H  17)     44.7599         0.100614   
     97. D(O   4,C   3,Rh  0,O  16)   -135.2554         0.100614   
     98. D(C   2,C   3,Rh  0,O  13)    -56.7487         0.100614   
     99. D(Rh  0,C   3,C   2,H   8)      9.1624         0.011499   
    100. D(Rh  0,C   3,C   2,H   9)   -108.8802         0.011499   
    101. D(O   4,C   3,C   2,C   1)    -63.8735         0.011499   
    102. D(O   4,C   3,Rh  0,C  15)   -135.2400         0.100614   
    103. D(C   2,C   3,Rh  0,C  12)    -56.9706         0.100614   
    104. D(O   4,C   3,Rh  0,H  14)    -45.2414         0.100614   
    105. D(C   3,O   4,Rh  0,H  14)    128.3287         0.004288   
    106. D(C   3,O   4,Rh  0,O  13)    -51.5682         0.004288   
    107. D(C   3,O   4,Rh  0,C  12)    -51.6692         0.004288   
    108. D(C   3,O   4,Rh  0,O  11)   -179.0541         0.004288   
    109. D(C   3,O   4,Rh  0,C  15)     51.5752         0.004288   
    110. D(C   3,O   4,Rh  0,C  10)   -179.1849         0.004288   
    111. D(Rh  0,O   4,C   3,C   2)   -172.9893         0.090076   
    112. D(C   3,O   4,Rh  0,H  17)   -128.4215         0.004288   
    113. D(C   3,O   4,Rh  0,O  16)     51.3952         0.004288   
    -----------------------------------------------------------------

Number of atoms                         .... 18
Number of degrees of freedom            .... 113


         *************************************************************
         *                GEOMETRY OPTIMIZATION CYCLE   1            *
         *************************************************************
---------------------------------
CARTESIAN COORDINATES (ANGSTROEM)
---------------------------------
  Rh    0.000000    0.000000    0.000000
  C    -0.312544    1.142444    3.776537
  C     0.667293    0.469523    2.812356
  C     0.002509    0.021006    1.525853
  O    -0.864163   -0.838072    1.560571
  H    -0.808202    2.009434    3.291037
  H     0.237214    1.512041    4.670465
  H    -1.083303    0.420586    4.121577
  H     1.474304    1.190644    2.565213
  H     1.130122   -0.403836    3.321717
  C    -0.000158    0.000000   -1.529041
  O    -0.013294   -0.007368   -2.686093
  C     0.000122    1.529264   -0.000115
  O     0.010604    2.686323   -0.010146
  H     0.000000   -1.211000    0.000000
  C     1.529268    0.000000    0.000169
  O     2.686327    0.000922    0.014647
  H    -1.211000    0.000000    0.000000

----------------------------
CARTESIAN COORDINATES (A.U.)
----------------------------
  NO LB    ZA    FRAG    MASS        X           Y           Z
   0 Rh 45.0000    0   102.910    0.000000    0.000000    0.000000
   1 C   6.0000    0    12.011   -0.590622    2.158907    7.136620
   2 C   6.0000    0    12.011    1.261001    0.887270    5.314582
   3 C   6.0000    0    12.011    0.004740    0.039696    2.883445
   4 O   8.0000    0    15.999   -1.633032   -1.583727    2.949052
   5 H   1.0000    0     1.008   -1.527281    3.797280    6.219158
   6 H   1.0000    0     1.008    0.448270    2.857343    8.825899
   7 H   1.0000    0     1.008   -2.047147    0.794793    7.788652
   8 H   1.0000    0     1.008    2.786031    2.249992    4.847550
   9 H   1.0000    0     1.008    2.135621   -0.763139    6.277135
  10 C   6.0000    0    12.011   -0.000299    0.000000   -2.889468
  11 O   8.0000    0    15.999   -0.025123   -0.013923   -5.075980
  12 C   6.0000    0    12.011    0.000230    2.889890   -0.000218
  13 O   8.0000    0    15.999    0.020038    5.076414   -0.019173
  14 H   1.0000    0     1.008    0.000000   -2.288458    0.000000
  15 C   6.0000    0    12.011    2.889898    0.000000    0.000319
  16 O   8.0000    0    15.999    5.076422    0.001742    0.027679
  17 H   1.0000    0     1.008   -2.288458    0.000000    0.000000

      -----------------------------------------------------------      
     |                   =====================                   |     
     |                           x T B                           |     
     |                   =====================                   |     
     |                         S. Grimme                         |     
     |          Mulliken Center for Theoretical Chemistry        |     
     |                    University of Bonn                     |     
      -----------------------------------------------------------      

   * xtb version 6.7.1 (edcfbbe) compiled by 'albert@albert-system' on 2024-07-22

   xtb is free software: you can redistribute it and/or modify it under
   the terms of the GNU Lesser General Public License as published by
   the Free Software Foundation, either version 3 of the License, or
   (at your option) any later version.
   
   xtb is distributed in the hope that it will be useful,
   but WITHOUT ANY WARRANTY; without even the implied warranty of
   MERCHANTABILITY or FITNESS FOR A PARTICULAR PURPOSE.  See the
   GNU Lesser General Public License for more details.
   
   Cite this work as:
   * C. Bannwarth, E. Caldeweyher, S. Ehlert, A. Hansen, P. Pracht,
     J. Seibert, S. Spicher, S. Grimme, WIREs Comput. Mol. Sci., 2020, 11,
     e01493. DOI: 10.1002/wcms.1493
   
   for GFN2-xTB:
   * C. Bannwarth, S. Ehlert and S. Grimme., J. Chem. Theory Comput., 2019,
     15, 1652-1671. DOI: 10.1021/acs.jctc.8b01176
   for GFN1-xTB:
   * S. Grimme, C. Bannwarth, P. Shushkov, J. Chem. Theory Comput., 2017,
     13, 1989-2009. DOI: 10.1021/acs.jctc.7b00118
   for GFN0-xTB:
   * P. Pracht, E. Caldeweyher, S. Ehlert, S. Grimme, ChemRxiv, 2019, preprint.
     DOI: 10.26434/chemrxiv.8326202.v1
   for GFN-FF:
   * S. Spicher and S. Grimme, Angew. Chem. Int. Ed., 2020, 59, 15665-15673.
     DOI: 10.1002/anie.202004239
   
   for ALPB and GBSA implicit solvation:
   * S. Ehlert, M. Stahn, S. Spicher, S. Grimme, J. Chem. Theory Comput.,
     2021, 17, 4250-4261. DOI: 10.1021/acs.jctc.1c00471
   
   for ddCOSMO and CPCM-X implicit solvation:
   * M. Stahn, S. Ehlert, S. Grimme, J. Phys. Chem. A,
     2023, XX, XXXX-XXXX. DOI: 10.1021/acs.jpca.3c04382
   
   for DFT-D4:
   * E. Caldeweyher, C. Bannwarth and S. Grimme, J. Chem. Phys., 2017,
     147, 034112. DOI: 10.1063/1.4993215
   * E. Caldeweyher, S. Ehlert, A. Hansen, H. Neugebauer, S. Spicher,
     C. Bannwarth and S. Grimme, J. Chem. Phys., 2019, 150, 154122.
     DOI: 10.1063/1.5090222
   * E. Caldeweyher, J.-M. Mewes, S. Ehlert and S. Grimme, Phys. Chem. Chem. Phys.
     2020, 22, 8499-8512. DOI: 10.1039/D0CP00502A
   
   for sTDA-xTB:
   * S. Grimme and C. Bannwarth, J. Chem. Phys., 2016, 145, 054103.
     DOI: 10.1063/1.4959605
   
   in the mass-spec context:
   * V. Asgeirsson, C. Bauer and S. Grimme, Chem. Sci., 2017, 8, 4879.
     DOI: 10.1039/c7sc00601b
   * J. Koopman and S. Grimme, ACS Omega 2019, 4, 12, 15120-15133.
     DOI: 10.1021/acsomega.9b02011
   
   for metadynamics refer to:
   * S. Grimme, J. Chem. Theory Comput., 2019, 155, 2847-2862
     DOI: 10.1021/acs.jctc.9b00143
   
   for SPH calculations refer to:
   * S. Spicher and S. Grimme, J. Chem. Theory Comput., 2021, 17, 1701-1714
     DOI: 10.1021/acs.jctc.0c01306
   
   for ONIOM refer to:
   * C. Plett, A. Katbashev, S. Ehlert, S. Grimme, M. Bursch,
     Phys. Chem. Chem. Phys., 2023, 25, 17860-17868. DOI: 10.1039/D3CP02178E
   
   for DIPRO refer to:
   * J. Kohn, N. Gildemeister, S. Grimme, D. Fazzi, A. Hansen,
     J. Chem. Phys., 2023, just accepted.
   
   for PTB refer to:
   * S. Grimme, M. Mueller, A. Hansen, J. Chem. Phys., 2023, 158, 124111.
     DOI: 10.1063/5.0137838
   
   with help from (in alphabetical order)
   P. Atkinson, C. Bannwarth, F. Bohle, G. Brandenburg, E. Caldeweyher
   M. Checinski, S. Dohm, S. Ehlert, S. Ehrlich, I. Gerasimov, C. Hölzer
   A. Katbashev, J. Kohn, J. Koopman, C. Lavigne, S. Lehtola, F. März, M. Müller,
   F. Musil, H. Neugebauer, J. Pisarek, C. Plett, P. Pracht, F. Pultar,
   J. Seibert, P. Shushkov, S. Spicher, M. Stahn, M. Steiner, T. Strunk,
   J. Stückrath, T. Rose, and J. Unsleber
   
 * started run on 2025/11/20 at 15:26:49.006     
   ID    Z sym.   atoms
    1   45 Rh     1
    2    6 C      2-4, 11, 13, 16
    3    8 O      5, 12, 14, 17
    4    1 H      6-10, 15, 18

           -------------------------------------------------
          |                Calculation Setup                |
           -------------------------------------------------

          program call               : otool_xtb final_relax_0_XTB.xyz --grad -c 0 -u 0 -P 1 --namespace final_relax_0 --input final_relax_0_XTB.input.tmp --acc 0.200000
          hostname                   : saraswati
          calculation namespace      : final_relax_0
          coordinate file            : final_relax_0_XTB.xyz
          omp threads                :                     1


           -------------------------------------------------
          |                 G F N 2 - x T B                 |
           -------------------------------------------------

        Reference                      10.1021/acs.jctc.8b01176
      * Hamiltonian:
        H0-scaling (s, p, d)           1.850000    2.230000    2.230000
        zeta-weighting                 0.500000
      * Dispersion:
        s8                             2.700000
        a1                             0.520000
        a2                             5.000000
        s9                             5.000000
      * Repulsion:
        kExp                           1.500000    1.000000
        rExp                           1.000000
      * Coulomb:
        alpha                          2.000000
        third order                    shell-resolved
        anisotropic                    true
        a3                             3.000000
        a5                             4.000000
        cn-shift                       1.200000
        cn-exp                         4.000000
        max-rad                        5.000000


          ...................................................
          :                      SETUP                      :
          :.................................................:
          :  # basis functions                  57          :
          :  # atomic orbitals                  56          :
          :  # shells                           30          :
          :  # electrons                        64          :
          :  max. iterations                   250          :
          :  Hamiltonian                  GFN2-xTB          :
          :  restarted?                      false          :
          :  GBSA solvation                  false          :
          :  PC potential                    false          :
          :  electronic temp.          300.0000000     K    :
          :  accuracy                    0.2000000          :
          :  -> integral cutoff          0.3198970E+02      :
          :  -> integral neglect         0.2000000E-08      :
          :  -> SCF convergence          0.2000000E-06 Eh   :
          :  -> wf. convergence          0.2000000E-04 e    :
          :  Broyden damping             0.4000000          :
          :  net charge                          0          :
          :  unpaired electrons                  0          :
          ...................................................

 iter      E             dE          RMSdq      gap      omega  full diag
   1    -36.5977977 -0.365978E+02  0.806E+00    1.76       0.0  T
   2    -36.6996320 -0.101834E+00  0.368E+00    0.09       1.0  T
   3    -36.8234516 -0.123820E+00  0.375E+00    0.96       1.0  T
   4    -36.9230681 -0.996165E-01  0.127E+00    0.80       1.0  T
   5    -36.9350451 -0.119770E-01  0.575E-01    0.46       1.0  T
   6    -36.9336878  0.135732E-02  0.479E-01    0.37       1.0  T
   7    -36.9329315  0.756304E-03  0.335E-01    0.58       1.0  T
   8    -36.9351180 -0.218652E-02  0.161E-01    0.52       1.0  T
   9    -36.9355074 -0.389352E-03  0.762E-02    0.49       1.0  T
  10    -36.9355942 -0.868247E-04  0.326E-02    0.47       1.0  T
  11    -36.9356094 -0.151989E-04  0.126E-02    0.46       1.9  T
  12    -36.9356119 -0.245614E-05  0.691E-03    0.46       3.4  T
  13    -36.9356128 -0.941211E-06  0.216E-03    0.46      10.9  T
  14    -36.9356129 -0.835345E-07  0.370E-04    0.46      63.7  T
  15    -36.9356129  0.370882E-09  0.283E-04    0.46      83.4  T
  16    -36.9356129 -0.886146E-09  0.194E-04    0.46     121.2  T
  17    -36.9356129 -0.761794E-09  0.523E-05    0.46     450.9  T

   *** convergence criteria satisfied after 17 iterations ***

         #    Occupation            Energy/Eh            Energy/eV
      -------------------------------------------------------------
         1        2.0000           -0.8280889             -22.5334
       ...           ...                  ...                  ...
        26        2.0000           -0.5108986             -13.9023
        27        2.0000           -0.5033212             -13.6961
        28        2.0000           -0.4866040             -13.2412
        29        2.0000           -0.4736781             -12.8894
        30        2.0000           -0.4664257             -12.6921
        31        2.0000           -0.4414912             -12.0136
        32        1.9997           -0.3030820              -8.2473 (HOMO)
        33        0.0003           -0.2860366              -7.7835 (LUMO)
        34                         -0.2721937              -7.4068
        35                         -0.2695526              -7.3349
        36                         -0.2673126              -7.2739
        37                         -0.2583042              -7.0288
       ...                                ...                  ...
        56                          2.6806787              72.9450
      -------------------------------------------------------------
                  HL-Gap            0.0170454 Eh            0.4638 eV
             Fermi-level           -0.2945593 Eh           -8.0154 eV

 SCC (total)                   0 d,  0 h,  0 min,  0.042 sec
 SCC setup                      ...        0 min,  0.000 sec (  1.011%)
 Dispersion                     ...        0 min,  0.000 sec (  0.782%)
 classical contributions        ...        0 min,  0.000 sec (  0.220%)
 integral evaluation            ...        0 min,  0.010 sec ( 23.387%)
 iterations                     ...        0 min,  0.019 sec ( 43.879%)
 molecular gradient             ...        0 min,  0.013 sec ( 30.221%)
 printout                       ...        0 min,  0.000 sec (  0.394%)

         :::::::::::::::::::::::::::::::::::::::::::::::::::::
         ::                     SUMMARY                     ::
         :::::::::::::::::::::::::::::::::::::::::::::::::::::
         :: total energy             -35.748182119757 Eh    ::
         :: gradient norm              1.410225469705 Eh/a0 ::
         :: HOMO-LUMO gap              0.463829621885 eV    ::
         ::.................................................::
         :: SCC energy               -36.935566460127 Eh    ::
         :: -> isotropic ES            0.070311777441 Eh    ::
         :: -> anisotropic ES          0.008371905533 Eh    ::
         :: -> anisotropic XC          0.000590677230 Eh    ::
         :: -> dispersion             -0.019930914253 Eh    ::
         :: repulsion energy           1.187384340370 Eh    ::
         :: add. restraining           0.000000000000 Eh    ::
         :: total charge              -0.000000000128 e     ::
         :::::::::::::::::::::::::::::::::::::::::::::::::::::


Property printout bound to 'properties.out'

           -------------------------------------------------
          | TOTAL ENERGY              -35.748182119757 Eh   |
          | GRADIENT NORM               1.410225469705 Eh/α |
          | HOMO-LUMO GAP               0.463829621885 eV   |
           -------------------------------------------------

------------------------------------------------------------------------
 * finished run on 2025/11/20 at 15:26:49.077     
------------------------------------------------------------------------
 total:
 * wall-time:     0 d,  0 h,  0 min,  0.071 sec
 *  cpu-time:     0 d,  0 h,  0 min,  0.065 sec
 * ratio c/w:     0.926 speedup
 SCF:
 * wall-time:     0 d,  0 h,  0 min,  0.043 sec
 *  cpu-time:     0 d,  0 h,  0 min,  0.042 sec
 * ratio c/w:     0.977 speedup


-------------------------   --------------------
FINAL SINGLE POINT ENERGY       -35.748182119760
-------------------------   --------------------


-------------
DIPOLE MOMENT
-------------
                                X             Y             Z
Total Dipole Moment    :      1.10300       1.16800       0.76100
                        -----------------------------------------
Magnitude (a.u.)       :      1.77763
Magnitude (Debye)      :      4.51837

------------------------------------------------------------------------------
                         ORCA GEOMETRY RELAXATION STEP
------------------------------------------------------------------------------

Reading the OPT-File                    .... done
Getting information on internals        .... done
Copying old internal coords+grads       .... done
Making the new internal coordinates     .... (2022 redundants) done
Validating the new internal coordinates .... (2022 redundants) done
Calculating the B-matrix                .... done
Calculating the G,G- and P matrices     .... done
Transforming gradient to internals      .... done
Projecting the internal gradient        .... done
Number of atoms                         ....  18
Number of internal coordinates          .... 113
Current Energy                          ....   -35.748182120 Eh
Current gradient norm                   ....     1.410225470 Eh/bohr
Maximum allowed component of the step   ....  0.300
Current trust radius                    ....  0.300
Evaluating the initial hessian          ....  (Almloef) done
Projecting the Hessian                  .... done
Forming the augmented Hessian           .... done
Diagonalizing the augmented Hessian     .... done
Last element of RFO vector              ....  0.904542474
Lowest eigenvalues of augmented Hessian:
 -0.500336124  0.011104985  0.015662925  0.071630839  0.088743776
Length of the computed step             ....  0.471380329
Warning: the length of the step is outside the trust region - taking restricted step instead
The input lambda is                     ....     0.010102
   iter:   5  x=    0.000873  g=16196.594023 f(x)=    57.695839
   iter:  10  x=   -0.090841  g=   27.944533 f(x)=     1.178547
   iter:  15  x=   -1.572727  g=    0.071869 f(x)=     0.019180
   iter:  20  x=   -1.621230  g=    0.051497 f(x)=    -0.000000
The output lambda is                    ....    -1.621230 (20 iterations)
The final length of the internal step   ....  0.300000000
Converting the step to Cartesian space:
 Initial RMS(Int)=    0.0282216261
Transforming coordinates:
 Iter   0:  RMS(Cart)=    0.0554723719 RMS(Int)=    0.0282439071
 Iter   5:  RMS(Cart)=    0.0000090088 RMS(Int)=    0.0000066348
 Iter  10:  RMS(Cart)=    0.0000001888 RMS(Int)=    0.0000001390
done
Storing new coordinates                 .... done

                                .--------------------.
          ----------------------|Geometry convergence|-------------------------
          Item                value                   Tolerance       Converged
          ---------------------------------------------------------------------
          RMS gradient        0.1119623881            0.0001000000      NO
          MAX gradient        0.5518657320            0.0003000000      NO
          RMS step            0.0282216261            0.0020000000      NO
          MAX step            0.1205997896            0.0040000000      NO
          ........................................................
          Max(Bonds)      0.0638      Max(Angles)    1.78
          Max(Dihed)        1.27      Max(Improp)    0.00
          ---------------------------------------------------------------------

The optimization has not yet converged - more geometry cycles are needed


    ---------------------------------------------------------------------------
                         Redundant Internal Coordinates
                            (Angstroem and degrees)

        Definition                    Value    dE/dq     Step     New-Value
    ----------------------------------------------------------------------------
     1. B(C   2,C   1)                1.5305  0.002458 -0.0007    1.5299   
     2. B(C   3,C   2)                1.5160 -0.018171  0.0048    1.5208   
     3. B(C   3,Rh  0)                1.5260 -0.551866  0.0623    1.5883   
     4. B(O   4,C   3)                1.2208 -0.007437  0.0051    1.2259   
     5. B(O   4,Rh  0)                1.9709 -0.357976  0.0638    2.0347   
     6. B(H   5,C   1)                1.1104  0.009381 -0.0025    1.1079   
     7. B(H   6,C   1)                1.1126  0.012563 -0.0034    1.1092   
     8. B(H   7,C   1)                1.1109  0.021288 -0.0058    1.1052   
     9. B(H   8,C   2)                1.1101  0.005162 -0.0014    1.1087   
    10. B(H   9,C   2)                1.1119  0.009569 -0.0026    1.1093   
    11. B(C  10,Rh  0)                1.5290 -0.384291  0.0470    1.5761   
    12. B(O  11,C  10)                1.1572  0.193526 -0.0174    1.1398   
    13. B(O  11,Rh  0)                2.6861 -0.190821  0.0297    2.7158   
    14. B(C  12,Rh  0)                1.5293 -0.395726  0.0483    1.5776   
    15. B(O  13,Rh  0)                2.6864 -0.189667  0.0289    2.7153   
    16. B(O  13,C  12)                1.1571  0.205766 -0.0193    1.1378   
    17. B(H  14,Rh  0)                1.2110 -0.347489  0.0465    1.2575   
    18. B(C  15,Rh  0)                1.5293 -0.388718  0.0474    1.5767   
    19. B(O  16,C  15)                1.1571  0.204150 -0.0194    1.1377   
    20. B(O  16,Rh  0)                2.6864 -0.184617  0.0280    2.7144   
    21. B(H  17,Rh  0)                1.2110 -0.340247  0.0455    1.2565   
    22. A(C  12,Rh  0,C  15)           90.00  0.007102   -0.25     89.75   
    23. A(C  10,Rh  0,C  15)           90.01 -0.006685    0.16     90.17   
    24. A(C   3,Rh  0,O  16)           89.59 -0.019047    0.21     89.81   
    25. A(O  13,Rh  0,C  15)           89.77  0.016902   -0.49     89.29   
    26. A(O   4,Rh  0,O  16)          115.74  0.025293   -0.50    115.24   
    27. A(O  11,Rh  0,C  15)           90.29 -0.003968    0.10     90.39   
    28. A(H  14,Rh  0,O  16)           90.02  0.014965   -0.36     89.66   
    29. A(O  13,Rh  0,O  16)           89.76  0.007231   -0.24     89.52   
    30. A(C   3,Rh  0,O   4)           38.27  0.072648   -1.29     36.98   
    31. A(H  14,Rh  0,C  15)           90.00  0.005400   -0.12     89.88   
    32. A(C  12,Rh  0,O  16)           89.98 -0.002571    0.00     89.98   
    33. A(O   4,Rh  0,H  17)           63.99 -0.052721    1.18     65.18   
    34. A(O  13,Rh  0,H  17)           90.23  0.012115   -0.30     89.93   
    35. A(C  10,Rh  0,O  16)           90.32 -0.005249    0.13     90.45   
    36. A(O  11,Rh  0,C  12)           90.15  0.003902   -0.17     89.99   
    37. A(C  10,Rh  0,H  17)           89.99  0.026209   -0.62     89.37   
    38. A(O   4,Rh  0,C  10)          142.35 -0.052268    1.21    143.56   
    39. A(O   4,Rh  0,O  11)          142.04 -0.053967    1.25    143.29   
    40. A(C   3,Rh  0,H  17)           90.09 -0.001646    0.27     90.36   
    41. A(O  11,Rh  0,H  17)           89.72  0.023412   -0.56     89.15   
    42. A(C   3,Rh  0,C  12)           89.22 -0.008359   -0.08     89.13   
    43. A(O   4,Rh  0,C  12)          115.17  0.042224   -0.99    114.18   
    44. A(C  10,Rh  0,C  12)           90.00  0.004230   -0.16     89.83   
    45. A(C  12,Rh  0,H  17)           90.00  0.021842   -0.54     89.46   
    46. A(C   3,Rh  0,O  13)           89.43 -0.008937   -0.07     89.36   
    47. A(O   4,Rh  0,O  13)          115.46  0.037087   -0.86    114.61   
    48. A(C  10,Rh  0,O  13)           89.78  0.004727   -0.18     89.61   
    49. A(O  11,Rh  0,O  13)           89.94  0.004363   -0.18     89.76   
    50. A(H  14,Rh  0,H  17)           90.00 -0.034345    0.90     90.90   
    51. A(O  11,Rh  0,O  16)           90.60 -0.002506    0.07     90.67   
    52. A(C   3,Rh  0,H  14)           90.79 -0.011632    0.56     91.35   
    53. A(O   4,Rh  0,H  14)           64.84 -0.065785    1.58     66.41   
    54. A(C  10,Rh  0,H  14)           90.00  0.015779   -0.31     89.69   
    55. A(O  11,Rh  0,H  14)           89.84  0.016046   -0.31     89.54   
    56. A(C   3,Rh  0,C  15)           89.90 -0.017477    0.18     90.08   
    57. A(O   4,Rh  0,C  15)          116.00  0.021831   -0.40    115.60   
    58. A(C   2,C   1,H   5)          110.71  0.009051   -0.27    110.43   
    59. A(H   6,C   1,H   7)          108.01 -0.002342    0.09    108.09   
    60. A(H   5,C   1,H   7)          109.48  0.000680   -0.02    109.46   
    61. A(C   2,C   1,H   7)          110.74 -0.014147    0.43    111.17   
    62. A(H   5,C   1,H   6)          108.21  0.001937   -0.08    108.13   
    63. A(C   2,C   1,H   6)          109.62  0.004912   -0.15    109.48   
    64. A(C   1,C   2,H   9)          108.86 -0.009444    0.33    109.19   
    65. A(C   3,C   2,H   8)          108.79  0.001835   -0.07    108.72   
    66. A(C   1,C   2,H   8)          108.67  0.025923   -0.80    107.87   
    67. A(C   1,C   2,C   3)          112.58 -0.023002    0.68    113.25   
    68. A(H   8,C   2,H   9)          108.04  0.004345   -0.15    107.89   
    69. A(C   3,C   2,H   9)          109.81  0.001667   -0.03    109.78   
    70. A(C   2,C   3,O   4)          119.69 -0.075950    1.04    120.74   
    71. A(Rh  0,C   3,C   2)          148.58  0.031914   -1.78    146.80   
    72. A(Rh  0,C   3,O   4)           91.01  0.044811    0.71     91.71   
    73. A(Rh  0,O   4,C   3)           50.73 -0.117459    0.58     51.31   
    74. L(Rh  0,C  10,O  11,O  13, 2) 180.74  0.010953   -0.28    180.46   
    75. L(Rh  0,C  10,O  11,O  13, 1) 180.37 -0.001684    0.01    180.37   
    76. L(Rh  0,C  12,O  13,O  16, 2) 179.43  0.005879   -0.12    179.32   
    77. L(Rh  0,C  12,O  13,O  16, 1) 179.49  0.023945   -0.57    178.91   
    78. L(Rh  0,C  15,O  16,O  13, 2) 179.18 -0.003321    0.09    179.28   
    79. L(Rh  0,C  15,O  16,O  13, 1) 179.95 -0.022361    0.57    180.53   
    80. D(C   3,C   2,C   1,H   5)    -56.91  0.003838   -0.12    -57.03   
    81. D(C   3,C   2,C   1,H   7)     64.71  0.001251   -0.03     64.68   
    82. D(H   8,C   2,C   1,H   5)     63.66  0.009162   -0.32     63.35   
    83. D(C   3,C   2,C   1,H   6)   -176.21 -0.007290    0.24   -175.97   
    84. D(H   8,C   2,C   1,H   7)   -174.72  0.006575   -0.23   -174.95   
    85. D(H   8,C   2,C   1,H   6)    -55.64 -0.001966    0.05    -55.60   
    86. D(O   4,C   3,Rh  0,C  12)    134.76  0.009209   -0.24    134.52   
    87. D(O   4,C   3,C   2,H   8)    175.63  0.020945   -0.65    174.97   
    88. D(C   2,C   3,Rh  0,O  16)     33.01  0.003295   -0.15     32.86   
    89. D(C   2,C   3,Rh  0,C  15)     33.03  0.012903   -0.40     32.63   
    90. D(O   4,C   3,C   2,H   9)     57.58  0.013646   -0.42     57.17   
    91. D(C   2,C   3,Rh  0,H  17)   -146.97 -0.016307    0.39   -146.58   
    92. D(O   4,C   3,Rh  0,O  13)    134.99 -0.000527    0.00    134.99   
    93. D(C   2,C   3,Rh  0,O   4)    168.27 -0.003662    0.09    168.36   
    94. D(Rh  0,C   3,C   2,C   1)    129.66  0.033718   -1.23    128.43   
    95. D(C   2,C   3,Rh  0,H  14)    123.02  0.018083   -0.51    122.51   
    96. D(O   4,C   3,Rh  0,H  17)     44.76 -0.012645    0.30     45.06   
    97. D(O   4,C   3,Rh  0,O  16)   -135.26  0.006958   -0.24   -135.50   
    98. D(C   2,C   3,Rh  0,O  13)    -56.75 -0.004189    0.09    -56.66   
    99. D(Rh  0,C   3,C   2,H   8)      9.16  0.014573   -0.62      8.54   
   100. D(Rh  0,C   3,C   2,H   9)   -108.88  0.007274   -0.38   -109.26   
   101. D(O   4,C   3,C   2,C   1)    -63.87  0.040090   -1.27    -65.14   
   102. D(O   4,C   3,Rh  0,C  15)   -135.24  0.016565   -0.49   -135.73   
   103. D(C   2,C   3,Rh  0,C  12)    -56.97  0.005546   -0.15    -57.12   
   104. D(O   4,C   3,Rh  0,H  14)    -45.24  0.021745   -0.60    -45.85   
   105. D(C   3,O   4,Rh  0,H  14)    128.33 -0.012022    0.19    128.52   
   106. D(C   3,O   4,Rh  0,O  13)    -51.57 -0.022808    0.52    -51.05   
   107. D(C   3,O   4,Rh  0,C  12)    -51.67 -0.013401    0.29    -51.38   
   108. D(C   3,O   4,Rh  0,O  11)   -179.05 -0.020722    0.64   -178.41   
   109. D(C   3,O   4,Rh  0,C  15)     51.58  0.034440   -0.87     50.71   
   110. D(C   3,O   4,Rh  0,C  10)   -179.18 -0.024298    0.71   -178.47   
   111. D(Rh  0,O   4,C   3,C   2)   -172.99 -0.009582    0.38   -172.61   
   112. D(C   3,O   4,Rh  0,H  17)   -128.42  0.016354   -0.34   -128.76   
   113. D(C   3,O   4,Rh  0,O  16)     51.40  0.023896   -0.60     50.79   
    ----------------------------------------------------------------------------

Geometry step timings:
Preparation and reading OPT file:      0.001 s ( 7.958 %)
Internal coordinates            :      0.000 s ( 0.555 %)
B/P matrices and projection     :      0.003 s (22.169 %)
Hessian update/contruction      :      0.003 s (18.654 %)
Making the step                 :      0.004 s (29.089 %)
Converting the step to Cartesian:      0.000 s ( 3.038 %)
Storing new data                :      0.001 s ( 3.639 %)
Checking convergence            :      0.000 s ( 0.111 %)
Final printing                  :      0.002 s (14.655 %)
Total time                      :      0.015 s

Time for energy+gradient        :      0.091 s
Time for complete geometry iter :      0.114 s

         *************************************************************
         *                GEOMETRY OPTIMIZATION CYCLE   2            *
         *************************************************************
---------------------------------
CARTESIAN COORDINATES (ANGSTROEM)
---------------------------------
  Rh   -0.004181   -0.015835   -0.026173
  C    -0.301092    1.160260    3.809143
  C     0.652912    0.457687    2.841248
  C    -0.024988   -0.007932    1.562053
  O    -0.889857   -0.875706    1.591565
  H    -0.785279    2.025651    3.315089
  H     0.269335    1.536415    4.682927
  H    -1.077192    0.465817    4.179073
  H     1.457687    1.173214    2.577389
  H     1.120905   -0.407397    3.354345
  C     0.009096    0.005055   -1.602064
  O     0.010443    0.012855   -2.741817
  C    -0.020670    1.561592   -0.009764
  O    -0.010680    2.699374   -0.009295
  H     0.017204   -1.272902   -0.049526
  C     1.572237    0.007408   -0.007261
  O     2.709648    0.013442    0.018817
  H    -1.260432   -0.017088   -0.051002

----------------------------
CARTESIAN COORDINATES (A.U.)
----------------------------
  NO LB    ZA    FRAG    MASS        X           Y           Z
   0 Rh 45.0000    0   102.910   -0.007900   -0.029923   -0.049459
   1 C   6.0000    0    12.011   -0.568981    2.192575    7.198236
   2 C   6.0000    0    12.011    1.233825    0.864904    5.369181
   3 C   6.0000    0    12.011   -0.047220   -0.014989    2.951853
   4 O   8.0000    0    15.999   -1.681586   -1.654844    3.007622
   5 H   1.0000    0     1.008   -1.483963    3.827925    6.264610
   6 H   1.0000    0     1.008    0.508969    2.903403    8.849449
   7 H   1.0000    0     1.008   -2.035597    0.880266    7.897303
   8 H   1.0000    0     1.008    2.754629    2.217054    4.870560
   9 H   1.0000    0     1.008    2.118203   -0.769869    6.338794
  10 C   6.0000    0    12.011    0.017189    0.009553   -3.027462
  11 O   8.0000    0    15.999    0.019734    0.024292   -5.181284
  12 C   6.0000    0    12.011   -0.039060    2.950982   -0.018450
  13 O   8.0000    0    15.999   -0.020182    5.101078   -0.017565
  14 H   1.0000    0     1.008    0.032511   -2.405436   -0.093591
  15 C   6.0000    0    12.011    2.971098    0.013999   -0.013722
  16 O   8.0000    0    15.999    5.120492    0.025401    0.035559
  17 H   1.0000    0     1.008   -2.381872   -0.032292   -0.096379

      -----------------------------------------------------------      
     |                   =====================                   |     
     |                           x T B                           |     
     |                   =====================                   |     
     |                         S. Grimme                         |     
     |          Mulliken Center for Theoretical Chemistry        |     
     |                    University of Bonn                     |     
      -----------------------------------------------------------      

   * xtb version 6.7.1 (edcfbbe) compiled by 'albert@albert-system' on 2024-07-22

   xtb is free software: you can redistribute it and/or modify it under
   the terms of the GNU Lesser General Public License as published by
   the Free Software Foundation, either version 3 of the License, or
   (at your option) any later version.
   
   xtb is distributed in the hope that it will be useful,
   but WITHOUT ANY WARRANTY; without even the implied warranty of
   MERCHANTABILITY or FITNESS FOR A PARTICULAR PURPOSE.  See the
   GNU Lesser General Public License for more details.
   
   Cite this work as:
   * C. Bannwarth, E. Caldeweyher, S. Ehlert, A. Hansen, P. Pracht,
     J. Seibert, S. Spicher, S. Grimme, WIREs Comput. Mol. Sci., 2020, 11,
     e01493. DOI: 10.1002/wcms.1493
   
   for GFN2-xTB:
   * C. Bannwarth, S. Ehlert and S. Grimme., J. Chem. Theory Comput., 2019,
     15, 1652-1671. DOI: 10.1021/acs.jctc.8b01176
   for GFN1-xTB:
   * S. Grimme, C. Bannwarth, P. Shushkov, J. Chem. Theory Comput., 2017,
     13, 1989-2009. DOI: 10.1021/acs.jctc.7b00118
   for GFN0-xTB:
   * P. Pracht, E. Caldeweyher, S. Ehlert, S. Grimme, ChemRxiv, 2019, preprint.
     DOI: 10.26434/chemrxiv.8326202.v1
   for GFN-FF:
   * S. Spicher and S. Grimme, Angew. Chem. Int. Ed., 2020, 59, 15665-15673.
     DOI: 10.1002/anie.202004239
   
   for ALPB and GBSA implicit solvation:
   * S. Ehlert, M. Stahn, S. Spicher, S. Grimme, J. Chem. Theory Comput.,
     2021, 17, 4250-4261. DOI: 10.1021/acs.jctc.1c00471
   
   for ddCOSMO and CPCM-X implicit solvation:
   * M. Stahn, S. Ehlert, S. Grimme, J. Phys. Chem. A,
     2023, XX, XXXX-XXXX. DOI: 10.1021/acs.jpca.3c04382
   
   for DFT-D4:
   * E. Caldeweyher, C. Bannwarth and S. Grimme, J. Chem. Phys., 2017,
     147, 034112. DOI: 10.1063/1.4993215
   * E. Caldeweyher, S. Ehlert, A. Hansen, H. Neugebauer, S. Spicher,
     C. Bannwarth and S. Grimme, J. Chem. Phys., 2019, 150, 154122.
     DOI: 10.1063/1.5090222
   * E. Caldeweyher, J.-M. Mewes, S. Ehlert and S. Grimme, Phys. Chem. Chem. Phys.
     2020, 22, 8499-8512. DOI: 10.1039/D0CP00502A
   
   for sTDA-xTB:
   * S. Grimme and C. Bannwarth, J. Chem. Phys., 2016, 145, 054103.
     DOI: 10.1063/1.4959605
   
   in the mass-spec context:
   * V. Asgeirsson, C. Bauer and S. Grimme, Chem. Sci., 2017, 8, 4879.
     DOI: 10.1039/c7sc00601b
   * J. Koopman and S. Grimme, ACS Omega 2019, 4, 12, 15120-15133.
     DOI: 10.1021/acsomega.9b02011
   
   for metadynamics refer to:
   * S. Grimme, J. Chem. Theory Comput., 2019, 155, 2847-2862
     DOI: 10.1021/acs.jctc.9b00143
   
   for SPH calculations refer to:
   * S. Spicher and S. Grimme, J. Chem. Theory Comput., 2021, 17, 1701-1714
     DOI: 10.1021/acs.jctc.0c01306
   
   for ONIOM refer to:
   * C. Plett, A. Katbashev, S. Ehlert, S. Grimme, M. Bursch,
     Phys. Chem. Chem. Phys., 2023, 25, 17860-17868. DOI: 10.1039/D3CP02178E
   
   for DIPRO refer to:
   * J. Kohn, N. Gildemeister, S. Grimme, D. Fazzi, A. Hansen,
     J. Chem. Phys., 2023, just accepted.
   
   for PTB refer to:
   * S. Grimme, M. Mueller, A. Hansen, J. Chem. Phys., 2023, 158, 124111.
     DOI: 10.1063/5.0137838
   
   with help from (in alphabetical order)
   P. Atkinson, C. Bannwarth, F. Bohle, G. Brandenburg, E. Caldeweyher
   M. Checinski, S. Dohm, S. Ehlert, S. Ehrlich, I. Gerasimov, C. Hölzer
   A. Katbashev, J. Kohn, J. Koopman, C. Lavigne, S. Lehtola, F. März, M. Müller,
   F. Musil, H. Neugebauer, J. Pisarek, C. Plett, P. Pracht, F. Pultar,
   J. Seibert, P. Shushkov, S. Spicher, M. Stahn, M. Steiner, T. Strunk,
   J. Stückrath, T. Rose, and J. Unsleber
   
 * started run on 2025/11/20 at 15:26:49.120     
   ID    Z sym.   atoms
    1   45 Rh     1
    2    6 C      2-4, 11, 13, 16
    3    8 O      5, 12, 14, 17
    4    1 H      6-10, 15, 18

           -------------------------------------------------
          |                Calculation Setup                |
           -------------------------------------------------

          program call               : otool_xtb final_relax_0_XTB.xyz --grad -c 0 -u 0 -P 1 --namespace final_relax_0 --input final_relax_0_XTB.input.tmp --acc 0.200000
          hostname                   : saraswati
          calculation namespace      : final_relax_0
          coordinate file            : final_relax_0_XTB.xyz
          omp threads                :                     1


           -------------------------------------------------
          |                 G F N 2 - x T B                 |
           -------------------------------------------------

        Reference                      10.1021/acs.jctc.8b01176
      * Hamiltonian:
        H0-scaling (s, p, d)           1.850000    2.230000    2.230000
        zeta-weighting                 0.500000
      * Dispersion:
        s8                             2.700000
        a1                             0.520000
        a2                             5.000000
        s9                             5.000000
      * Repulsion:
        kExp                           1.500000    1.000000
        rExp                           1.000000
      * Coulomb:
        alpha                          2.000000
        third order                    shell-resolved
        anisotropic                    true
        a3                             3.000000
        a5                             4.000000
        cn-shift                       1.200000
        cn-exp                         4.000000
        max-rad                        5.000000

q/qsh data taken from xtbrestart
CAMM data taken from xtbrestart

          ...................................................
          :                      SETUP                      :
          :.................................................:
          :  # basis functions                  57          :
          :  # atomic orbitals                  56          :
          :  # shells                           30          :
          :  # electrons                        64          :
          :  max. iterations                   250          :
          :  Hamiltonian                  GFN2-xTB          :
          :  restarted?                       true          :
          :  GBSA solvation                  false          :
          :  PC potential                    false          :
          :  electronic temp.          300.0000000     K    :
          :  accuracy                    0.2000000          :
          :  -> integral cutoff          0.3198970E+02      :
          :  -> integral neglect         0.2000000E-08      :
          :  -> SCF convergence          0.2000000E-06 Eh   :
          :  -> wf. convergence          0.2000000E-04 e    :
          :  Broyden damping             0.4000000          :
          :  net charge                          0          :
          :  unpaired electrons                  0          :
          ...................................................

 iter      E             dE          RMSdq      gap      omega  full diag
   1    -36.9839337 -0.369839E+02  0.925E-01    0.90       0.0  T
   2    -36.9858322 -0.189856E-02  0.745E-01    0.49       1.0  T
   3    -36.9956808 -0.984859E-02  0.299E-01    0.73       1.0  T
   4    -36.9961540 -0.473198E-03  0.162E-01    0.64       1.0  T
   5    -36.9963236 -0.169576E-03  0.576E-02    0.65       1.0  T
   6    -36.9963565 -0.329418E-04  0.265E-02    0.66       1.0  T
   7    -36.9963563  0.228652E-06  0.133E-02    0.67       1.8  T
   8    -36.9963590 -0.269046E-05  0.375E-03    0.66       6.3  T
   9    -36.9963591 -0.537349E-07  0.252E-03    0.66       9.3  T
  10    -36.9963591 -0.540285E-07  0.109E-03    0.66      21.6  T
  11    -36.9963591 -0.610003E-08  0.527E-04    0.66      44.7  T
  12    -36.9963591 -0.256066E-08  0.487E-05    0.66     484.5  T
  13    -36.9963591 -0.193126E-10  0.232E-05    0.66    1015.7  T

   *** convergence criteria satisfied after 13 iterations ***

         #    Occupation            Energy/Eh            Energy/eV
      -------------------------------------------------------------
         1        2.0000           -0.8315121             -22.6266
       ...           ...                  ...                  ...
        26        2.0000           -0.5047144             -13.7340
        27        2.0000           -0.4972905             -13.5320
        28        2.0000           -0.4806989             -13.0805
        29        2.0000           -0.4682970             -12.7430
        30        2.0000           -0.4614638             -12.5571
        31        2.0000           -0.4390826             -11.9480
        32        2.0000           -0.3078026              -8.3757 (HOMO)
        33        0.0000           -0.2834595              -7.7133 (LUMO)
        34                         -0.2725216              -7.4157
        35                         -0.2702615              -7.3542
        36                         -0.2686900              -7.3114
        37                         -0.2626376              -7.1467
       ...                                ...                  ...
        56                          2.7002557              73.4777
      -------------------------------------------------------------
                  HL-Gap            0.0243431 Eh            0.6624 eV
             Fermi-level           -0.2956310 Eh           -8.0445 eV

 SCC (total)                   0 d,  0 h,  0 min,  0.032 sec
 SCC setup                      ...        0 min,  0.000 sec (  1.310%)
 Dispersion                     ...        0 min,  0.000 sec (  0.980%)
 classical contributions        ...        0 min,  0.000 sec (  0.233%)
 integral evaluation            ...        0 min,  0.010 sec ( 29.997%)
 iterations                     ...        0 min,  0.011 sec ( 35.428%)
 molecular gradient             ...        0 min,  0.010 sec ( 31.478%)
 printout                       ...        0 min,  0.000 sec (  0.454%)

         :::::::::::::::::::::::::::::::::::::::::::::::::::::
         ::                     SUMMARY                     ::
         :::::::::::::::::::::::::::::::::::::::::::::::::::::
         :: total energy             -36.032075897892 Eh    ::
         :: gradient norm              0.972740953456 Eh/a0 ::
         :: HOMO-LUMO gap              0.662410606561 eV    ::
         ::.................................................::
         :: SCC energy               -36.996308433253 Eh    ::
         :: -> isotropic ES            0.062924653580 Eh    ::
         :: -> anisotropic ES          0.008693112006 Eh    ::
         :: -> anisotropic XC          0.002111716583 Eh    ::
         :: -> dispersion             -0.019863337861 Eh    ::
         :: repulsion energy           0.964232535360 Eh    ::
         :: add. restraining           0.000000000000 Eh    ::
         :: total charge              -0.000000000061 e     ::
         :::::::::::::::::::::::::::::::::::::::::::::::::::::


Property printout bound to 'properties.out'

           -------------------------------------------------
          | TOTAL ENERGY              -36.032075897892 Eh   |
          | GRADIENT NORM               0.972740953456 Eh/α |
          | HOMO-LUMO GAP               0.662410606561 eV   |
           -------------------------------------------------

------------------------------------------------------------------------
 * finished run on 2025/11/20 at 15:26:49.182     
------------------------------------------------------------------------
 total:
 * wall-time:     0 d,  0 h,  0 min,  0.061 sec
 *  cpu-time:     0 d,  0 h,  0 min,  0.055 sec
 * ratio c/w:     0.905 speedup
 SCF:
 * wall-time:     0 d,  0 h,  0 min,  0.032 sec
 *  cpu-time:     0 d,  0 h,  0 min,  0.031 sec
 * ratio c/w:     0.969 speedup


-------------------------   --------------------
FINAL SINGLE POINT ENERGY       -36.032075897890
-------------------------   --------------------


-------------
DIPOLE MOMENT
-------------
                                X             Y             Z
Total Dipole Moment    :      1.25500       1.34700       0.42500
                        -----------------------------------------
Magnitude (a.u.)       :      1.88946
Magnitude (Debye)      :      4.80263

------------------------------------------------------------------------------
                         ORCA GEOMETRY RELAXATION STEP
------------------------------------------------------------------------------

Reading the OPT-File                    .... done
Getting information on internals        .... done
Copying old internal coords+grads       .... done
Making the new internal coordinates     .... (2022 redundants) done
Validating the new internal coordinates .... (2022 redundants) done
Calculating the B-matrix                .... done
Calculating the G,G- and P matrices     .... done
Transforming gradient to internals      .... done
Projecting the internal gradient        .... done
Number of atoms                         ....  18
Number of internal coordinates          .... 113
Current Energy                          ....   -36.032075898 Eh
Current gradient norm                   ....     0.972740953 Eh/bohr
Maximum allowed component of the step   ....  0.300
Current trust radius                    ....  0.300
Updating the Hessian (BFGS)             .... done
Forming the augmented Hessian           .... done
Diagonalizing the augmented Hessian     .... done
Last element of RFO vector              ....  0.823201300
Lowest eigenvalues of augmented Hessian:
 -0.535027067  0.011103934  0.023781998  0.071620792  0.089320662
Length of the computed step             ....  0.689685027
Warning: the length of the step is outside the trust region - taking restricted step instead
The input lambda is                     ....     0.010103
   iter:   5  x=    0.000053  g=61351.914973 f(x)=   238.282274
   iter:  10  x=   -0.101244  g=  105.631500 f(x)=     4.901314
   iter:  15  x=   -1.602575  g=    0.216890 f(x)=     0.098737
   iter:  20  x=   -1.951873  g=    0.067693 f(x)=     0.000000
The output lambda is                    ....    -1.951873 (21 iterations)
The final length of the internal step   ....  0.300000000
Converting the step to Cartesian space:
 Initial RMS(Int)=    0.0282216261
Transforming coordinates:
 Iter   0:  RMS(Cart)=    0.0645067689 RMS(Int)=    0.0283439664
 Iter   5:  RMS(Cart)=    0.0000125947 RMS(Int)=    0.0000095442
 Iter  10:  RMS(Cart)=    0.0000002657 RMS(Int)=    0.0000002013
done
Storing new coordinates                 .... done
The predicted energy change is          ....    -0.212241682
Previously predicted energy change      ....    -0.245911849
Actually observed energy change         ....    -0.283893778
Ratio of predicted to observed change   ....     1.154453431
New trust radius                        ....     0.450000000

                                .--------------------.
          ----------------------|Geometry convergence|-------------------------
          Item                value                   Tolerance       Converged
          ---------------------------------------------------------------------
          Energy change      -0.2838937781            0.0000050000      NO
          RMS gradient        0.0796388615            0.0001000000      NO
          MAX gradient        0.4039455237            0.0003000000      NO
          RMS step            0.0282216261            0.0020000000      NO
          MAX step            0.1303197787            0.0040000000      NO
          ........................................................
          Max(Bonds)      0.0690      Max(Angles)    1.45
          Max(Dihed)        0.89      Max(Improp)    0.00
          ---------------------------------------------------------------------

The optimization has not yet converged - more geometry cycles are needed


    ---------------------------------------------------------------------------
                         Redundant Internal Coordinates
                            (Angstroem and degrees)

        Definition                    Value    dE/dq     Step     New-Value
    ----------------------------------------------------------------------------
     1. B(C   2,C   1)                1.5299  0.002549 -0.0007    1.5292   
     2. B(C   3,C   2)                1.5208 -0.006548  0.0003    1.5210   
     3. B(C   3,Rh  0)                1.5884 -0.403946  0.0690    1.6573   
     4. B(O   4,C   3)                1.2255  0.020682 -0.0045    1.2210   
     5. B(O   4,Rh  0)                2.0349 -0.276904  0.0580    2.0929   
     6. B(H   5,C   1)                1.1079  0.011864 -0.0036    1.1043   
     7. B(H   6,C   1)                1.1092  0.012942 -0.0036    1.1057   
     8. B(H   7,C   1)                1.1052  0.011939 -0.0020    1.1032   
     9. B(H   8,C   2)                1.1087  0.004795 -0.0013    1.1075   
    10. B(H   9,C   2)                1.1093  0.008347 -0.0021    1.1073   
    11. B(C  10,Rh  0)                1.5761 -0.269502  0.0482    1.6243   
    12. B(O  11,C  10)                1.1398  0.123513 -0.0182    1.1216   
    13. B(O  11,Rh  0)                2.7158 -0.146265  0.0301    2.7460   
    14. B(C  12,Rh  0)                1.5776 -0.276774  0.0496    1.6272   
    15. B(O  13,Rh  0)                2.7153 -0.148505  0.0310    2.7463   
    16. B(O  13,C  12)                1.1378  0.127821 -0.0185    1.1193   
    17. B(H  14,Rh  0)                1.2575 -0.243527  0.0458    1.3033   
    18. B(C  15,Rh  0)                1.5767 -0.274287  0.0492    1.6259   
    19. B(O  16,C  15)                1.1377  0.128250 -0.0186    1.1191   
    20. B(O  16,Rh  0)                2.7144 -0.146249  0.0306    2.7449   
    21. B(H  17,Rh  0)                1.2565 -0.240417  0.0453    1.3018   
    22. A(C  12,Rh  0,C  15)           89.75 -0.016846    0.79     90.54   
    23. A(C  10,Rh  0,C  15)           90.19 -0.012849    0.39     90.59   
    24. A(C   3,Rh  0,O  16)           89.80 -0.020782    0.53     90.33   
    25. A(O  13,Rh  0,C  15)           89.29 -0.010153    0.64     89.93   
    26. A(O   4,Rh  0,O  16)          115.25  0.020683   -0.56    114.69   
    27. A(O  11,Rh  0,C  15)           90.37 -0.010109    0.28     90.65   
    28. A(H  14,Rh  0,O  16)           89.66 -0.002271    0.25     89.91   
    29. A(O  13,Rh  0,O  16)           89.51 -0.003189    0.28     89.79   
    30. A(C   3,Rh  0,O   4)           37.01  0.060611   -1.45     35.56   
    31. A(H  14,Rh  0,C  15)           89.88  0.004626   -0.11     89.77   
    32. A(C  12,Rh  0,O  16)           89.97 -0.009885    0.43     90.40   
    33. A(O   4,Rh  0,H  17)           65.17 -0.016432    0.10     65.27   
    34. A(O  13,Rh  0,H  17)           89.93 -0.002116    0.23     90.16   
    35. A(C  10,Rh  0,O  16)           90.46 -0.011498    0.35     90.81   
    36. A(O  11,Rh  0,C  12)           89.99 -0.008484    0.41     90.40   
    37. A(C  10,Rh  0,H  17)           89.35  0.009451   -0.11     89.24   
    38. A(O   4,Rh  0,C  10)          143.53 -0.010625   -0.18    143.35   
    39. A(O   4,Rh  0,O  11)          143.30 -0.020874    0.23    143.52   
    40. A(C   3,Rh  0,H  17)           90.38  0.022352   -0.77     89.62   
    41. A(O  11,Rh  0,H  17)           89.18  0.006909    0.01     89.18   
    42. A(C   3,Rh  0,C  12)           89.11 -0.017991    0.57     89.68   
    43. A(O   4,Rh  0,C  12)          114.19  0.025651   -0.50    113.68   
    44. A(C  10,Rh  0,C  12)           89.84 -0.020632    0.87     90.71   
    45. A(C  12,Rh  0,H  17)           89.47  0.004587    0.08     89.55   
    46. A(C   3,Rh  0,O  13)           89.36 -0.018590    0.60     89.96   
    47. A(O   4,Rh  0,O  13)          114.62  0.022252   -0.40    114.22   
    48. A(C  10,Rh  0,O  13)           89.60 -0.020320    0.84     90.44   
    49. A(O  11,Rh  0,O  13)           89.75 -0.008171    0.38     90.13   
    50. A(H  14,Rh  0,H  17)           90.90  0.007514   -0.76     90.13   
    51. A(O  11,Rh  0,O  16)           90.63 -0.008823    0.23     90.87   
    52. A(C   3,Rh  0,H  14)           91.36  0.029453   -1.20     90.16   
    53. A(O   4,Rh  0,H  14)           66.41 -0.009631   -0.38     66.02   
    54. A(C  10,Rh  0,H  14)           89.69  0.009015   -0.24     89.45   
    55. A(O  11,Rh  0,H  14)           89.54 -0.003078    0.22     89.76   
    56. A(C   3,Rh  0,C  15)           90.06 -0.019710    0.49     90.55   
    57. A(O   4,Rh  0,C  15)          115.59  0.024986   -0.77    114.81   
    58. A(C   2,C   1,H   5)          110.43 -0.000853    0.18    110.62   
    59. A(H   6,C   1,H   7)          108.09 -0.001356    0.01    108.10   
    60. A(H   5,C   1,H   7)          109.46  0.001015   -0.05    109.42   
    61. A(C   2,C   1,H   7)          111.17  0.002266   -0.33    110.84   
    62. A(H   5,C   1,H   6)          108.13  0.000012    0.06    108.19   
    63. A(C   2,C   1,H   6)          109.48 -0.001156    0.13    109.61   
    64. A(C   1,C   2,H   9)          109.18 -0.003253   -0.08    109.10   
    65. A(C   3,C   2,H   8)          108.72 -0.003713    0.22    108.94   
    66. A(C   1,C   2,H   8)          107.87 -0.004269    0.63    108.49   
    67. A(C   1,C   2,C   3)          113.25  0.009477   -0.76    112.49   
    68. A(H   8,C   2,H   9)          107.89 -0.001120    0.14    108.03   
    69. A(C   3,C   2,H   9)          109.78  0.002313   -0.11    109.67   
    70. A(C   2,C   3,O   4)          120.74 -0.005630   -0.98    119.76   
    71. A(Rh  0,C   3,C   2)          146.80 -0.012637    0.61    147.41   
    72. A(Rh  0,C   3,O   4)           91.71  0.018105    0.38     92.09   
    73. A(Rh  0,O   4,C   3)           51.28 -0.078716    1.07     52.36   
    74. L(Rh  0,C  10,O  11,O  13, 2) 180.48  0.012552   -0.32    180.16   
    75. L(Rh  0,C  10,O  11,O  13, 1) 180.37  0.028377   -1.06    179.30   
    76. L(Rh  0,C  12,O  13,O  16, 2) 179.32  0.004811   -0.10    179.22   
    77. L(Rh  0,C  12,O  13,O  16, 1) 178.91  0.017681   -0.39    178.51   
    78. L(Rh  0,C  15,O  16,O  13, 2) 179.27 -0.004222    0.12    179.39   
    79. L(Rh  0,C  15,O  16,O  13, 1) 180.53  0.015780   -0.83    179.71   
    80. D(C   3,C   2,C   1,H   5)    -57.03  0.000004    0.06    -56.96   
    81. D(C   3,C   2,C   1,H   7)     64.68  0.002241   -0.10     64.58   
    82. D(H   8,C   2,C   1,H   5)     63.34 -0.001662    0.27     63.62   
    83. D(C   3,C   2,C   1,H   6)   -175.97  0.001228   -0.21   -176.18   
    84. D(H   8,C   2,C   1,H   7)   -174.95  0.000575    0.12   -174.83   
    85. D(H   8,C   2,C   1,H   6)    -55.60 -0.000438    0.00    -55.59   
    86. D(O   4,C   3,Rh  0,C  12)    134.53  0.007878   -0.20    134.33   
    87. D(O   4,C   3,C   2,H   8)    174.97  0.000652    0.44    175.41   
    88. D(C   2,C   3,Rh  0,O  16)     32.86 -0.001301    0.17     33.02   
    89. D(C   2,C   3,Rh  0,C  15)     32.63 -0.008363    0.53     33.16   
    90. D(O   4,C   3,C   2,H   9)     57.17  0.002852    0.20     57.37   
    91. D(C   2,C   3,Rh  0,H  17)   -146.58  0.004082   -0.34   -146.92   
    92. D(O   4,C   3,Rh  0,O  13)    134.99  0.001270   -0.04    134.94   
    93. D(C   2,C   3,Rh  0,O   4)    168.36  0.000321   -0.06    168.30   
    94. D(Rh  0,C   3,C   2,C   1)    128.43 -0.002567    0.82    129.25   
    95. D(C   2,C   3,Rh  0,H  14)    122.51 -0.004176    0.43    122.94   
    96. D(O   4,C   3,Rh  0,H  17)     45.06  0.003761   -0.28     44.78   
    97. D(O   4,C   3,Rh  0,O  16)   -135.50 -0.001622    0.22   -135.28   
    98. D(C   2,C   3,Rh  0,O  13)    -56.66  0.001591   -0.10    -56.76   
    99. D(Rh  0,C   3,C   2,H   8)      8.55 -0.000663    0.37      8.92   
   100. D(Rh  0,C   3,C   2,H   9)   -109.26  0.001538    0.14   -109.12   
   101. D(O   4,C   3,C   2,C   1)    -65.15 -0.001252    0.89    -64.26   
   102. D(O   4,C   3,Rh  0,C  15)   -135.73 -0.008684    0.59   -135.14   
   103. D(C   2,C   3,Rh  0,C  12)    -57.12  0.008199   -0.26    -57.37   
   104. D(O   4,C   3,Rh  0,H  14)    -45.84 -0.004496    0.49    -45.36   
[...]
      -------------------------------------------------------------
                  HL-Gap            0.0770711 Eh            2.0972 eV
             Fermi-level           -0.3451253 Eh           -9.3913 eV

 SCC (total)                   0 d,  0 h,  0 min,  0.027 sec
 SCC setup                      ...        0 min,  0.000 sec (  1.109%)
 Dispersion                     ...        0 min,  0.000 sec (  0.810%)
 classical contributions        ...        0 min,  0.000 sec (  0.191%)
 integral evaluation            ...        0 min,  0.007 sec ( 26.883%)
 iterations                     ...        0 min,  0.009 sec ( 33.793%)
 molecular gradient             ...        0 min,  0.010 sec ( 36.575%)
 printout                       ...        0 min,  0.000 sec (  0.527%)

         :::::::::::::::::::::::::::::::::::::::::::::::::::::
         ::                     SUMMARY                     ::
         :::::::::::::::::::::::::::::::::::::::::::::::::::::
         :: total energy             -36.679935815955 Eh    ::
         :: gradient norm              0.009226056101 Eh/a0 ::
         :: HOMO-LUMO gap              2.097211221130 eV    ::
         ::.................................................::
         :: SCC energy               -37.083314610630 Eh    ::
         :: -> isotropic ES            0.041165364800 Eh    ::
         :: -> anisotropic ES          0.004334526604 Eh    ::
         :: -> anisotropic XC          0.010923211399 Eh    ::
         :: -> dispersion             -0.017161274768 Eh    ::
         :: repulsion energy           0.403378794676 Eh    ::
         :: add. restraining           0.000000000000 Eh    ::
         :: total charge              -0.000000000000 e     ::
         :::::::::::::::::::::::::::::::::::::::::::::::::::::


Property printout bound to 'properties.out'

           -------------------------------------------------
          | TOTAL ENERGY              -36.679935815955 Eh   |
          | GRADIENT NORM               0.009226056101 Eh/α |
          | HOMO-LUMO GAP               2.097211221130 eV   |
           -------------------------------------------------

------------------------------------------------------------------------
 * finished run on 2025/11/20 at 15:26:54.658     
------------------------------------------------------------------------
 total:
 * wall-time:     0 d,  0 h,  0 min,  0.052 sec
 *  cpu-time:     0 d,  0 h,  0 min,  0.047 sec
 * ratio c/w:     0.895 speedup
 SCF:
 * wall-time:     0 d,  0 h,  0 min,  0.027 sec
 *  cpu-time:     0 d,  0 h,  0 min,  0.026 sec
 * ratio c/w:     0.964 speedup


-------------------------   --------------------
FINAL SINGLE POINT ENERGY       -36.679935815950
-------------------------   --------------------


-------------
DIPOLE MOMENT
-------------
                                X             Y             Z
Total Dipole Moment    :      1.55800       0.70900      -0.07300
                        -----------------------------------------
Magnitude (a.u.)       :      1.71329
Magnitude (Debye)      :      4.35485

------------------------------------------------------------------------------
                         ORCA GEOMETRY RELAXATION STEP
------------------------------------------------------------------------------

Reading the OPT-File                    .... done
Getting information on internals        .... done
Copying old internal coords+grads       .... done
Making the new internal coordinates     .... (2022 redundants) done
Validating the new internal coordinates .... (2022 redundants) done
Calculating the B-matrix                .... done
Calculating the G,G- and P matrices     .... done
Transforming gradient to internals      .... done
Projecting the internal gradient        .... done
Number of atoms                         ....  18
Number of internal coordinates          .... 113
Current Energy                          ....   -36.679935816 Eh
Current gradient norm                   ....     0.009226056 Eh/bohr
Maximum allowed component of the step   ....  0.300
Current trust radius                    ....  0.700
Updating the Hessian (BFGS)             .... done
Forming the augmented Hessian           .... done
Diagonalizing the augmented Hessian     .... done
Last element of RFO vector              ....  0.862469847
Lowest eigenvalues of augmented Hessian:
 -0.000244156  0.000322681  0.001129720  0.004869166  0.009450058
Length of the computed step             ....  0.586812920
The final length of the internal step   ....  0.586812920
Converting the step to Cartesian space:
 Initial RMS(Int)=    0.0552027160
Transforming coordinates:
 Iter   0:  RMS(Cart)=    0.0922285632 RMS(Int)=    0.8192587331
 Iter   5:  RMS(Cart)=    0.0000687166 RMS(Int)=    0.0000567010
 Iter  10:  RMS(Cart)=    0.0000018208 RMS(Int)=    0.0000015019
done
Storing new coordinates                 .... done
The predicted energy change is          ....    -0.000164116
Previously predicted energy change      ....    -0.000115036
Actually observed energy change         ....    -0.000111415
Ratio of predicted to observed change   ....     0.968529473
New trust radius                        ....     0.700000000

                                .--------------------.
          ----------------------|Geometry convergence|-------------------------
          Item                value                   Tolerance       Converged
          ---------------------------------------------------------------------
          Energy change      -0.0001114154            0.0000050000      NO
          RMS gradient        0.0005092615            0.0001000000      NO
          MAX gradient        0.0024434439            0.0003000000      NO
          RMS step            0.0552027160            0.0020000000      NO
          MAX step            0.1534585156            0.0040000000      NO
          ........................................................
          Max(Bonds)      0.0046      Max(Angles)    3.67
          Max(Dihed)        8.79      Max(Improp)    0.00
          ---------------------------------------------------------------------

The optimization has not yet converged - more geometry cycles are needed


    ---------------------------------------------------------------------------
                         Redundant Internal Coordinates
                            (Angstroem and degrees)

        Definition                    Value    dE/dq     Step     New-Value
    ----------------------------------------------------------------------------
     1. B(C   2,C   1)                1.5290  0.000991 -0.0018    1.5272   
     2. B(C   3,C   2)                1.5344  0.000194 -0.0003    1.5341   
     3. B(C   3,Rh  0)                2.1078  0.000086 -0.0046    2.1032   
     4. B(O   4,C   3)                1.1972  0.000154  0.0006    1.1978   
     5. B(O   4,Rh  0)                2.9294 -0.000099 -0.0042    2.9252   
     6. B(H   5,C   1)                1.0867 -0.000128  0.0002    1.0868   
     7. B(H   6,C   1)                1.0860 -0.000297  0.0004    1.0864   
     8. B(H   7,C   1)                1.0863 -0.000029 -0.0001    1.0862   
     9. B(H   8,C   2)                1.0937 -0.000222  0.0003    1.0940   
    10. B(H   9,C   2)                1.0948 -0.000017  0.0005    1.0953   
    11. B(C  10,Rh  0)                1.9442 -0.001215 -0.0020    1.9422   
    12. B(O  11,C  10)                1.1367  0.000462  0.0009    1.1376   
    13. B(O  11,Rh  0)                3.0300 -0.001106 -0.0030    3.0270   
    14. B(C  12,Rh  0)                1.8943 -0.000371  0.0018    1.8961   
    15. B(O  13,Rh  0)                3.0277 -0.000090  0.0003    3.0280   
    16. B(O  13,C  12)                1.1385  0.000318 -0.0003    1.1382   
    17. B(H  14,Rh  0)                1.5490  0.002443  0.0033    1.5523   
    18. B(C  15,Rh  0)                1.9003  0.000244  0.0023    1.9026   
    19. B(O  16,C  15)                1.1382 -0.000086 -0.0001    1.1382   
    20. B(O  16,Rh  0)                3.0317  0.000107  0.0009    3.0327   
    21. B(H  17,Rh  0)                1.5363  0.001810  0.0017    1.5380   
    22. A(C  12,Rh  0,C  15)          101.20 -0.000052   -0.18    101.01   
    23. A(C  10,Rh  0,C  15)           99.11  0.000486   -0.63     98.48   
    24. A(C   3,Rh  0,O  16)           95.71 -0.000657    0.90     96.61   
    25. A(O  13,Rh  0,C  15)          102.06 -0.000042   -0.37    101.69   
    26. A(O   4,Rh  0,O  16)          115.52 -0.000576    1.67    117.20   
    27. A(O  11,Rh  0,C  15)          105.85  0.000614   -0.46    105.38   
    28. A(H  14,Rh  0,O  16)           86.85 -0.000086    0.43     87.28   
    29. A(O  13,Rh  0,O  16)          103.71 -0.000110   -0.38    103.34   
    30. A(C   3,Rh  0,O   4)           20.18  0.000083    0.04     20.23   
    31. A(H  14,Rh  0,C  15)           87.81 -0.000192    0.28     88.09   
    32. A(C  12,Rh  0,O  16)          102.74 -0.000131   -0.22    102.52   
    33. A(O   4,Rh  0,H  17)           65.33  0.000291   -0.06     65.27   
    34. A(O  13,Rh  0,H  17)           85.76  0.000170    0.51     86.27   
    35. A(C  10,Rh  0,O  16)           96.25  0.000355   -1.05     95.20   
    36. A(O  11,Rh  0,C  12)          106.26 -0.000225    0.38    106.64   
    37. A(C  10,Rh  0,H  17)           81.12 -0.000036    0.07     81.19   
    38. A(O   4,Rh  0,C  10)          145.53  0.000328    0.97    146.50   
    39. A(O   4,Rh  0,O  11)          137.69  0.000069    0.92    138.61   
    40. A(C   3,Rh  0,H  17)           85.51  0.000374    0.21     85.72   
    41. A(O  11,Rh  0,H  17)           73.84 -0.000233   -0.10     73.73   
    42. A(C   3,Rh  0,C  12)           82.72  0.000269   -0.77     81.96   
    43. A(O   4,Rh  0,C  12)           82.63  0.000279   -3.35     79.27   
    44. A(C  10,Rh  0,C  12)          104.00 -0.000537    0.33    104.33   
    45. A(C  12,Rh  0,H  17)           86.73  0.000202    0.33     87.06   
    46. A(C   3,Rh  0,O  13)           80.27  0.000185   -1.18     79.09   
    47. A(O   4,Rh  0,O  13)           80.05  0.000186   -3.67     76.38   
    48. A(C  10,Rh  0,O  13)          106.17 -0.000456    0.79    106.96   
    49. A(O  11,Rh  0,O  13)          108.22 -0.000157    0.84    109.06   
    50. A(H  14,Rh  0,H  17)           83.92 -0.000045   -0.33     83.59   
    51. A(O  11,Rh  0,O  16)          102.94  0.000488   -0.87    102.06   
    52. A(C   3,Rh  0,H  14)           84.34 -0.000002    0.21     84.55   
    53. A(O   4,Rh  0,H  14)           82.33 -0.000013    2.81     85.14   
    54. A(C  10,Rh  0,H  14)           86.67  0.000360    0.27     86.94   
    55. A(O  11,Rh  0,H  14)           82.87  0.000033    0.17     83.04   
    56. A(C   3,Rh  0,C  15)           93.02 -0.000810    0.43     93.45   
    57. A(O   4,Rh  0,C  15)          112.92 -0.000734    1.12    114.04   
    58. A(C   2,C   1,H   5)          110.01 -0.000493    0.08    110.08   
    59. A(H   6,C   1,H   7)          109.53  0.000943   -0.12    109.41   
    60. A(H   5,C   1,H   7)          108.29  0.000595    0.03    108.32   
    61. A(C   2,C   1,H   7)          109.60 -0.001358    0.20    109.80   
    62. A(H   5,C   1,H   6)          109.34  0.000625   -0.09    109.25   
    63. A(C   2,C   1,H   6)          110.05 -0.000287   -0.11    109.94   
    64. A(C   1,C   2,H   9)          109.69  0.000048    0.10    109.79   
    65. A(C   3,C   2,H   8)          110.04  0.000483   -0.47    109.57   
    66. A(C   1,C   2,H   8)          110.15 -0.000146    0.15    110.30   
    67. A(C   1,C   2,C   3)          111.44 -0.000260    0.29    111.73   
    68. A(H   8,C   2,H   9)          107.97  0.000357   -0.11    107.86   
    69. A(C   3,C   2,H   9)          107.44 -0.000468    0.03    107.47   
    70. A(C   2,C   3,O   4)          119.72  0.000338   -0.06    119.66   
    71. A(Rh  0,C   3,C   2)          117.86 -0.000122    0.06    117.92   
    72. A(Rh  0,C   3,O   4)          122.41 -0.000219   -0.04    122.38   
    73. A(Rh  0,O   4,C   3)           37.40  0.000137   -0.01     37.40   
    74. L(Rh  0,C  10,O  11,O  13, 2) 210.52  0.001717    0.90    211.42   
    75. L(Rh  0,C  10,O  11,O  13, 1) 182.03  0.000598   -0.06    181.97   
    76. L(Rh  0,C  12,O  13,O  16, 2) 188.73  0.000592    1.43    190.16   
    77. L(Rh  0,C  12,O  13,O  16, 1) 182.30  0.000029   -0.50    181.80   
    78. L(Rh  0,C  15,O  16,O  13, 2) 189.23  0.001210    1.64    190.87   
    79. L(Rh  0,C  15,O  16,O  13, 1) 184.08 -0.000220   -0.10    183.97   
    80. D(C   3,C   2,C   1,H   5)    -57.89  0.000200   -1.26    -59.15   
    81. D(C   3,C   2,C   1,H   7)     61.06 -0.000203   -1.04     60.02   
    82. D(H   8,C   2,C   1,H   5)     64.54  0.000535   -1.56     62.98   
    83. D(C   3,C   2,C   1,H   6)   -178.43 -0.000078   -1.12   -179.56   
    84. D(H   8,C   2,C   1,H   7)   -176.51  0.000132   -1.34   -177.85   
    85. D(H   8,C   2,C   1,H   6)    -56.00  0.000257   -1.42    -57.43   
    86. D(O   4,C   3,Rh  0,C  12)     88.42  0.000073   -7.65     80.77   
    87. D(O   4,C   3,C   2,H   8)   -128.59  0.000197    2.75   -125.83   
    88. D(C   2,C   3,Rh  0,O  16)     11.78  0.000213   -7.01      4.78   
    89. D(C   2,C   3,Rh  0,C  15)     10.54  0.000306   -6.90      3.64   
    90. D(O   4,C   3,C   2,H   9)    114.10 -0.000223    3.13    117.23   
    91. D(C   2,C   3,Rh  0,H  17)   -177.65  0.000115   -7.03   -184.67   
    92. D(O   4,C   3,Rh  0,O  13)     87.60  0.000032   -7.45     80.16   
    93. D(C   2,C   3,Rh  0,O   4)   -178.80  0.000181    1.00   -177.80   
    94. D(Rh  0,C   3,C   2,C   1)    172.74 -0.000013    1.85    174.59   
    95. D(C   2,C   3,Rh  0,H  14)     98.03  0.000195   -6.65     91.38   
    96. D(O   4,C   3,Rh  0,H  17)      1.15 -0.000066   -8.02     -6.88   
    97. D(O   4,C   3,Rh  0,O  16)   -169.42  0.000031   -8.00   -177.43   
    98. D(C   2,C   3,Rh  0,O  13)    -91.19  0.000213   -6.45    -97.64   
    99. D(Rh  0,C   3,C   2,H   8)     50.24  0.000014    1.79     52.04   
   100. D(Rh  0,C   3,C   2,H   9)    -67.07 -0.000406    2.17    -64.90   
   101. D(O   4,C   3,C   2,C   1)     -6.09  0.000170    2.81     -3.28   
   102. D(O   4,C   3,Rh  0,C  15)   -170.67  0.000125   -7.89   -178.56   
   103. D(C   2,C   3,Rh  0,C  12)    -90.38  0.000254   -6.66    -97.03   
   104. D(O   4,C   3,Rh  0,H  14)    -83.17  0.000014   -7.65    -90.82   
   105. D(C   3,O   4,Rh  0,H  14)     94.46  0.000001   -7.18     87.27   
   106. D(C   3,O   4,Rh  0,O  13)    -88.86 -0.000022   -6.56    -95.42   
   107. D(C   3,O   4,Rh  0,C  12)    -88.96 -0.000016   -6.91    -95.86   
   108. D(C   3,O   4,Rh  0,O  11)    164.95  0.000000   -3.95    161.00   
   109. D(C   3,O   4,Rh  0,C  15)     10.13  0.000088   -8.42      1.71   
   110. D(C   3,O   4,Rh  0,C  10)    167.02  0.000456   -2.86    164.16   
   111. D(Rh  0,O   4,C   3,C   2)    178.77 -0.000190   -1.05    177.73   
   112. D(C   3,O   4,Rh  0,H  17)   -178.74 -0.000074   -8.79   -187.53   
   113. D(C   3,O   4,Rh  0,O  16)     11.68 -0.000009   -8.60      3.08   
    ----------------------------------------------------------------------------

Geometry step timings:
Preparation and reading OPT file:      0.004 s (21.800 %)
Internal coordinates            :      0.000 s ( 0.463 %)
B/P matrices and projection     :      0.003 s (17.523 %)
Hessian update/contruction      :      0.003 s (19.452 %)
Making the step                 :      0.003 s (14.836 %)
Converting the step to Cartesian:      0.000 s ( 2.754 %)
Storing new data                :      0.001 s ( 3.011 %)
Checking convergence            :      0.000 s ( 0.195 %)
Final printing                  :      0.004 s (19.943 %)
Total time                      :      0.018 s

Time for energy+gradient        :      0.072 s
Time for complete geometry iter :      0.101 s




    ----------------------------------------------------------------------------
                                  WARNING !!!
       The optimization did not converge but reached the maximum number of
       optimization cycles.
       Please check your results very carefully.
    ----------------------------------------------------------------------------



--------------------------------
SUGGESTED CITATIONS FOR THIS RUN
--------------------------------

Below you find a list of papers that are relevant to this ORCA run
We neither can nor want to force you to cite these papers, but we appreciate if you do
You receive ORCA, which is the product of decades of hard work by many enthusiastic individuals, for free
The only thing we kindly ask in return is that you cite our papers,
We deeply appreciate it, if you show your appreciation for ORCA by not just citing the generic ORCA reference.

Please note that relegating all ORCA citations to the supporting information does *not* help us.
SI sections are not indexed - citations you put there will not count into any citation statistics
But we need these citations in order to attract the funding resources that allow us to do what we are doing

Therefore, if you are a happy ORCA user, please consider citing a few of the papers listed below in the main body of your paper

In addition to the list printed below, the program has created the file final_relax_0.bibtex that contains the list in bibtex format
You can import this file easily into all common literature databanks and citation aid programs


List of essential papers. We consider these as the minimum necessary citations

  1. Bannwarth,C.; Ehlert,S.; Grimme,S.
     GFN2-xTB—An Accurate and Broadly Parametrized Self-Consistent Tight-Binding Quantum Chemical Method with Multipole Electrostatics and Density-Dependent Dispersion Contributions
     J. Chem. Theory Comput., 2019 15(3)1652-1671
     doi.org/10.1021/acs.jctc.8b01176
  2. Neese,F.
     Software update: the ORCA program system, version 5.0
     WIRES Comput. Molec. Sci., 2022 12(1)e1606
     doi.org/10.1002/wcms.1606

List of papers to cite with high priority. The work reported in these papers was absolutely
necessary for this run to complete.
Our perspective: the developers of density functionals and basis sets usually get cited in chemistry papers
Good! But without the algorithms to do something with them, the functionals or basis sets would not do anything.
Hence, in our opinion, the algorithm design and method developments papers are equally worthy of getting cited

  1. Bannwarth,C.; Caldeweyher,E.; Ehlert,S.; Hansen,A.; Pracht,P.; Seibert,J.; Spicher,S.; Grimme,S.
     Extended tight-binding quantum chemistry methods
     WIRES Comput. Molec. Sci., 2020 11(2)e1493
     doi.org/10.1002/wcms.1493

List of suggested additional citations. These are papers that are important in the 'surrounding' of 
of this run, or papers that preceded the highly important papers. If you like your results we are grateful for a citation.

  1. Neese,F.
     The ORCA program system
     WIRES Comput. Molec. Sci., 2012 2(1)73-78
     doi.org/10.1002/wcms.81
  2. Neese,F.
     Software update: the ORCA program system, version 4.0
     WIRES Comput. Molec. Sci., 2018 8(1)1-6
     doi.org/10.1002/wcms.1327
  3. Neese,F.; Wennmohs,F.; Becker,U.; Riplinger,C.
     The ORCA quantum chemistry program package
     J. Chem. Phys., 2020 152 Art. No. L224108
     doi.org/10.1063/5.0004608

List of optional additional citations

  1. Neese,F.
     Approximate second-order SCF convergence for spin unrestricted wavefunctions
     Chem. Phys. Lett., 2000 325(1-3)93-98
     doi.org/10.1016/s0009-2614(00)00662-x

Timings for individual modules:

Sum of individual times          ...        5.162 sec (=   0.086 min)
Geometry relaxation              ...        1.066 sec (=   0.018 min)  20.7 %
XTB module                       ...        4.096 sec (=   0.068 min)  79.3 %
                             ****ORCA TERMINATED NORMALLY****
TOTAL RUN TIME: 0 days 0 hours 0 minutes 5 seconds 838 msec
