
                                 *****************
                                 * O   R   C   A *
                                 *****************

                                            #,                                       
                                            ###                                      
                                            ####                                     
                                            #####                                    
                                            ######                                   
                                           ########,                                 
                                     ,,################,,,,,                         
                               ,,#################################,,                 
                          ,,##########################################,,             
                       ,#########################################, ''#####,          
                    ,#############################################,,   '####,        
                  ,##################################################,,,,####,       
                ,###########''''           ''''###############################       
              ,#####''   ,,,,##########,,,,          '''####'''          '####       
            ,##' ,,,,###########################,,,                        '##       
           ' ,,###''''                  '''############,,,                           
         ,,##''                                '''############,,,,        ,,,,,,###''
      ,#''                                            '''#######################'''  
     '                                                          ''''####''''         
             ,#######,   #######,   ,#######,      ##                                
            ,#'     '#,  ##    ##  ,#'     '#,    #''#        ,####,   ,####,        
            ##       ##  ##   ,#'  ##            #'  '#       #'       #'  '#        
            ##       ##  #######   ##           ,######,      #####,   #    #        
            '#,     ,#'  ##    ##  '#,     ,#' ,#      #,     #,   #   #,  ,#        
             '#######'   ##     ##  '#######'  #'      '#     '####' # '####'        



                #########################################################
                #                        -***-                          #
                #          Department of theory and spectroscopy        #
                #                                                       #
                #                      Frank Neese                      #
                #                                                       #
                #     Directorship, Architecture, Infrastructure        #
                #                    SHARK, DRIVERS                     #
                #        Core code/Algorithms in most modules           #
                #                                                       #
                #        Max Planck Institute fuer Kohlenforschung      #
                #                Kaiser Wilhelm Platz 1                 #
                #                 D-45470 Muelheim/Ruhr                 #
                #                      Germany                          #
                #                                                       #
                #                  All rights reserved                  #
                #                        -***-                          #
                #########################################################


                         Program Version 6.0.1  -  RELEASE   -


 With contributions from (in alphabetic order):
[Max-Planck-Institut fuer Kohlenforschung]                               
  Daniel Aravena         : Magnetic Suceptibility                        
  Michael Atanasov       : Ab Initio Ligand Field Theory (pilot matlab implementation)
  Alexander A. Auer      : GIAO ZORA, VPT2 properties, NMR spectrum      
  Ute Becker             : All parallelization in ORCA, NUMFREQ, NUMCALC 
  Giovanni Bistoni       : ED, misc. LED, open-shell LED, HFLD           
  Martin Brehm           : Molecular dynamics                            
  Dmytro Bykov           : pre 5.0 version of the SCF Hessian            
  Marcos Casanova-Páez   : Triplet and SCS-CIS(D). UHF-(DLPNO)-IP/EA/STEOM-CCSD. UHF-CVS-IP/STEOM-CCSD   
  Vijay G. Chilkuri      : MRCI spin determinant printing, contributions to CSF-ICE 
  Pauline Colinet        : FMM embedding                                 
  Dipayan Datta          : RHF DLPNO-CCSD density                        
  Achintya Kumar Dutta   : EOM-CC, STEOM-CC                              
  Nicolas Foglia         : Exact transition moments, OPA infrastructure, MCD improvements    
  Dmitry Ganyushin       : Spin-Orbit,Spin-Spin,Magnetic field MRCI      
  Miquel Garcia-Rates    : C-PCM and meta-GGA Hessian, CCSD/C-PCM, Gaussian charge scheme 
  Tiago L. C. Gouveia    : GS-ROHF, GS-ROCIS                             
  Yang Guo               : DLPNO-NEVPT2, F12-NEVPT2, CIM, IAO-localization        
  Andreas Hansen         : Spin unrestricted coupled pair/coupled cluster methods 
  Ingolf Harden          : AUTO-CI MPn and infrastructure                
  Benjamin Helmich-Paris : MC-RPA, TRAH-(SCF,CASSCF), AVAS, COSX integrals, SCF dyn. polar. 
  Lee Huntington         : MR-EOM, pCC                                   
  Robert Izsak           : Overlap fitted RIJCOSX, COSX-SCS-MP3, EOM     
  Riya Kayal             : Wick's Theorem for AUTO-CI, AUTO-CI UHF-CCSDT 
  Emily Kempfer          : AUTO-CI, RHF CISDT and CCSDT                  
  Christian Kollmar      : KDIIS, OOCD, Brueckner-CCSD(T), CCSD density, CASPT2, CASPT2-K, improved NEVPT2 
  Axel Koslowski         : Symmetry handling                             
  Simone Kossmann        : meta-GGA functionals, TD-DFT gradient, OOMP2, (MP2 Hessian; deprecated post 5.0) 
  Lucas Lang             : DCDCAS                                        
  Marvin Lechner         : AUTO-CI (C++ implementation), FIC-MRCC        
  Spencer Leger          : CASSCF response                               
  Dagmar Lenk            : GEPOL surface, SMD, ORCA-2-JSON               
  Dimitrios Liakos       : Extrapolation schemes; Compound Job, initial MDCI parallelization 
  Dimitrios Manganas     : Further ROCIS development; embedding schemes. LFT, Crystal Embedding 
  Dimitrios Pantazis     : SARC Basis sets                               
  Anastasios Papadopoulos: AUTO-CI, single reference methods and gradients 
  Taras Petrenko         : pre 6.0 DFT Hessian and TD-DFT gradient, (ASA, deprecated), ECA, 1-Electron XAS/XES, NRVS 
  Peter Pinski           : DLPNO-MP2, DLPNO-MP2 Gradient                 
  Christoph Reimann      : Effective Core Potentials                     
  Marius Retegan         : Local ZFS, SOC                                
  Christoph Riplinger    : Optimizer, TS searches, QM/MM, DLPNO-CCSD(T), (RO)-DLPNO pert. Triples 
  Michael Roemelt        : Original ROCIS implementation                 
  Masaaki Saitow         : Open-shell DLPNO-CCSD energy and density      
  Barbara Sandhoefer     : DKH picture change effects                    
  Kantharuban Sivalingam : CASSCF convergence/infrastructure, NEVPT2 and variants, FIC-MRCI 
  Bernardo de Souza      : ESD, SOC TD-DFT                               
  Georgi L. Stoychev     : AutoAux, RI-MP2 NMR, DLPNO-MP2 response, X2C  
  Van Anh Tran           : RI-MP2 g-tensors                              
  Willem Van den Heuvel  : Paramagnetic NMR                              
  Zikuan Wang            : NOTCH, Electric field optimization            
  Frank Wennmohs         : Technical directorship and infrastructure     
  Hang Xu                : AUTO-CI-Response properties                   
                                                                         
[FACCTs GmbH]                                                            
  Markus Bursch, Miquel Garcia-Rates, Christoph Riplinger, Bernardo de Souza, Georgi L. Stoychev 
                                                                 
  APM, Basis sets (HGBS, AHGBS, def-TZVP (Ac-Lr), def2-XVPD (La-Lu)), CI-OPT, improved COSX, DLPNO-Multilevel,           
  DOCKER, DRACO, updates on ESD, GOAT, IRC, LR-CPCM, MBIS, meta-GGA TD-DFT gradient, ML-optimized integration grids, 
  MM, NACMEs, nearIR, NEB, NEB-TS, NL-DFT gradient (VV10), 2- and 3-layer-ONIOM, interface openCOSMO-RS, QMMM,   
  Crystal-QMMM, SF, symmetry and pop. for TD-DFT, r2SCAN hybrids, SOLVATOR                                   
                                                                         
[Other institutions]                                                     
  V. Asgeirsson          : NEB                                           
  Christoph Bannwarth    : sTDA-DFT, sTD-DFT, PBEh-3c, B97-3c, D3        
  Sebastian Ehlert       : rSCAN, r2SCAN, r2SCAN-3c, D4, dhf basis sets  
  Marvin Friede          : D4 for Fr, Ra, Ac-Lr                          
  Lars Goerigk           : TD-DFT with DH, B97 family of functionals     
  Stefan Grimme          : VdW corrections, initial TS optimization, DFT functionals, gCP, sTDA/sTD-DF 
  Waldemar Hujo          : DFT-NL                                        
  H. Jonsson             : NEB                                           
  Holger Kruse           : gCP                                           
  Marcel Mueller         : wB97X-3c, vDZP basis set                      
  Hagen Neugebauer       : wr2SCAN                                       
  Tobias Risthaus        : range-separated hybrid DFT                    
  Lukas Wittmann         : regularized MP2, r2SCAN double-hybrids, wr2SCAN        
                                                                         
We gratefully acknowledge several colleagues who have allowed us to      
interface, adapt or use parts of their codes:                            
  Ed Valeev, F. Pavosevic, A. Kumar             : LibInt (2-el integral package), F12 methods 
  Garnet Chan, S. Sharma, J. Yang, R. Olivares  : DMRG                   
  Ulf Ekstrom                                   : XCFun DFT Library      
  Mihaly Kallay                                 : mrcc  (arbitrary order and MRCC methods)
  Frank Weinhold                                : gennbo (NPA and NBO analysis)           
  Simon Mueller                                 : openCOSMO-RS                            
  Christopher J. Cramer and Donald G. Truhlar   : smd solvation model                     
  S Lehtola, MJT Oliveira, MAL Marques          : LibXC Library                           
  Liviu Ungur et al                             : ANISO software                          


 Your calculation uses the libint2 library for the computation of 2-el integrals
 For citations please refer to: http://libint.valeyev.net

 Your ORCA version has been built with support for libXC version: 6.2.2
 For citations please refer to: https://libxc.gitlab.io

 This ORCA versions uses:
   CBLAS   interface :  Fast vector & matrix operations
   LAPACKE interface :  Fast linear algebra routines
   SCALAPACK package :  Parallel linear algebra routines
   Shared memory     :  Shared parallel matrices
   BLAS/LAPACK       :  OpenBLAS 0.3.27  USE64BITINT DYNAMIC_ARCH NO_AFFINITY Haswell SINGLE_THREADED
        Core in use  :  Haswell
   Copyright (c) 2011-2014, The OpenBLAS Project


Your calculation utilizes the semiempirical GFN2-xTB method
Please cite in your paper:
C. Bannwarth, Ehlert S., S. Grimme,  J. Chem. Theory Comput., 15, (2019), 1652.
   

================================================================================

cite the ECPs for Zr [Def2-ECP] as follows:
Ce-Yb(ecp-28): M. Dolg, H. Stoll, H.Preuss, J. Chem. Phys., 1989, 90, 1730-1734.
Y-Cd(ecp-28), Hf-Hg(ecp-46): D. Andrae,U. Haeussermann, M. Dolg, H. Stoll, H. Preuss, Theor. Chim. Acta, 1990, 77, 123-141.
In-Sb(ecp-28), Tl-Bi(ecp-46): B. Metz, H. Stoll, M. Dolg, J. Chem. Phys., 2000, 113, 2563-2569.
Te-Xe(ecp-28), Po-Rn(ecp-46): K. A. Peterson, D. Figgen, E. Goll, H. Stoll, M. Dolg, J. Chem. Phys., 2003, 119, 11113-11123.
Rb(ecp-28), Cs(ecp-46): T. Leininger, A. Nicklass, W. Kuechle, H. Stoll, M. Dolg, A. Bergner, Chem. Phys. Lett., 1996, 255, 274-280.
Sr(ecp-28), Ba(ecp-46): M. Kaupp, P. V. Schleyer, H. Stoll and H. Preuss, J. Chem. Phys., 1991, 94, 1360-1366.
La(ecp-46): M. Dolg, H. Stoll, A. Savin, H. Preuss, Theor. Chim. Acta, 1989, 75, 173-194.
Lu(ecp-28): X. Cao, M. Dolg, J. Chem. Phys., 2001, 115, 7348-7355.

ECP parameters for Zr [Def2-ECP] have been obtained from:
TURBOMOLE (7.0.2)

================================================================================
                                        WARNINGS
                       Please study these warnings very carefully!
================================================================================


WARNING: Geometry Optimization
  ===> : Switching off AutoStart
         For restart on a previous wavefunction, please use MOREAD

WARNING: Found dipole moment calculation with XTB calculation
  ===> : Switching off dipole moment calculation


================================================================================
                                       INPUT FILE
================================================================================
NAME = final_relax_0.com
|  1> ! XTB2 opt
|  2> 
|  3> *xyz 0 1
|  4> Zr 0.0 0.0 0.0
|  5> Cl 0.0 0.0 -2.493
|  6> Cl 2.493 0.0 0.0
|  7> N -0.06419695042341801 -0.050066637045534934 2.212502674215623
|  8> C -1.0182045159255104 0.5293570641995133 2.9773348334792806
|  9> C -1.8810300693978468 1.5556709814182113 2.290672761649623
| 10> C -1.281583022578624 2.0530986798768103 1.02175117991238
| 11> C -0.13070538952575 2.73585912292255 0.8901275848586062
| 12> C 0.02520206064362891 3.169041902643348 -0.4820109996627583
| 13> C -1.0474240074802375 2.7899893905597244 -1.1935610128108436
| 14> C -1.9144929013946232 2.0892764868689184 -0.27752563652363266
| 15> C -1.3010912314625769 0.10055779680965801 4.267321701061158
| 16> C -0.60821348364341 -0.9981031799647517 4.769237647154554
| 17> C 0.3077224977048583 -1.6635057727775295 3.9570453031590045
| 18> C 0.5399765449378976 -1.1686714188701572 2.678137870626804
| 19> C 1.161953163485898 -2.0252123538901117 1.59746343573306
| 20> C 0.10211605157648429 -2.488639891611563 0.6505446291536163
| 21> C -1.3140806626671562 -2.481449251138657 0.9621208769653504
| 22> C -1.960702637751542 -2.536127129609482 -0.20766070332115055
| 23> C -0.9964693107715789 -2.7205927964284182 -1.274479831661935
| 24> C 0.2478975056136772 -2.7320376050622235 -0.7654211555803097
| 25> H -2.0510131822731292 2.402532096341933 2.9677096529814606
| 26> H -2.859605791800251 1.10386557334436 2.08737974714227
| 27> H 0.5701322742054504 2.9697561166793247 1.676688422361136
| 28> H 0.8623485892417546 3.7454768983617877 -0.8456377657223364
| 29> H -1.2501318041284093 2.990198830541537 -2.2329233030976066
| 30> H -2.8681694020543467 1.6587201578410993 -0.5298588433570409
| 31> H -2.077258181116838 0.5790968358784122 4.854803556663309
| 32> H -0.8390789947999243 -1.3801650181132135 5.759463581609737
| 33> H 0.7531108274464253 -2.596572237735607 4.284620395383203
| 34> H 1.6890824407488836 -2.882414279914104 2.029908197513812
| 35> H 1.9007184026345534 -1.422727320192597 1.0568772409844591
| 36> H -1.7720260696758137 -2.4245376080812053 1.935225691442531
| 37> H -3.031207839953617 -2.562791186555253 -0.3467494414267416
| 38> H -1.2670099744649463 -2.896856331263063 -2.3051949585645226
| 39> H 1.1698793829790068 -2.8917313553261645 -1.2973782826450277
| 40> **                         ****END OF INPUT****
================================================================================

                       *****************************
                       * Geometry Optimization Run *
                       *****************************

Geometry optimization settings:
Update method            Update   .... BFGS
Choice of coordinates    CoordSys .... (2022) Redundant Internals
Initial Hessian          InHess   .... Almloef's Model
Max. no of cycles        MaxIter  .... 108

Convergence Tolerances:
Energy Change            TolE     ....  5.0000e-06 Eh
Max. Gradient            TolMAXG  ....  3.0000e-04 Eh/bohr
RMS Gradient             TolRMSG  ....  1.0000e-04 Eh/bohr
Max. Displacement        TolMAXD  ....  4.0000e-03 bohr
RMS Displacement         TolRMSD  ....  2.0000e-03 bohr
Strict Convergence                .... False

------------------------------------------------------------------------------
                        ORCA OPTIMIZATION COORDINATE SETUP
------------------------------------------------------------------------------

The optimization will be done in redundant internal coordinates (2022)
Making redundant internal coordinates   ...  (2022 redundants) done
Evaluating the initial hessian          ...  (Almloef) done
Evaluating the coordinates              ...  done
Calculating the B-matrix                .... done
Calculating the G-matrix                .... done
Diagonalizing the G-matrix              .... done
Small eigenvalue found = 2.323e-02
Small eigenvalue found = 2.459e-02
The first mode is                       ....  123
The number of degrees of freedom        ....  102

    -----------------------------------------------------------------
                    Redundant Internal Coordinates


    -----------------------------------------------------------------
         Definition                    Initial Value    Approx d2E/dq
    -----------------------------------------------------------------
      1. B(Cl  1,Zr  0)                  2.4930         0.246657   
      2. B(Cl  2,Zr  0)                  2.4930         0.246657   
      3. B(N   3,Zr  0)                  2.2140         0.274385   
      4. B(C   4,N   3)                  1.3531         0.640879   
      5. B(C   5,C   4)                  1.5064         0.407382   
      6. B(C   6,C   5)                  1.4889         0.434401   
      7. B(C   6,Zr  0)                  2.6271         0.067166   
      8. B(C   7,C   6)                  1.3446         0.738138   
      9. B(C   8,C   7)                  1.4473         0.506171   
     10. B(C   9,C   8)                  1.3418         0.745742   
     11. B(C  10,C   9)                  1.4429         0.514468   
     12. B(C  10,C   6)                  1.4457         0.509210   
     13. B(C  11,C   4)                  1.3885         0.628226   
     14. B(C  12,C  11)                  1.3925         0.619085   
     15. B(C  13,C  12)                  1.3933         0.617210   
     16. B(C  14,C  13)                  1.3908         0.622895   
     17. B(C  14,N   3)                  1.3539         0.638892   
     18. B(C  15,C  14)                  1.5127         0.398033   
     19. B(C  16,C  15)                  1.4949         0.425015   
     20. B(C  16,Zr  0)                  2.5743         0.081547   
     21. B(C  17,C  16)                  1.4501         0.501046   
     22. B(C  18,C  17)                  1.3377         0.757087   
     23. B(C  19,C  18)                  1.4498         0.501598   
     24. B(C  20,C  19)                  1.3445         0.738426   
     25. B(C  20,C  16)                  1.4441         0.512164   
     26. B(H  21,C   5)                  1.0975         0.350349   
     27. B(H  22,C   5)                  1.0968         0.351159   
     28. B(H  23,C   7)                  1.0791         0.374747   
     29. B(H  24,C   8)                  1.0795         0.374264   
     30. B(H  25,C   9)                  1.0777         0.376738   
     31. B(H  26,C  10)                  1.0764         0.378604   
     32. B(H  27,C  11)                  1.0847         0.367183   
     33. B(H  28,C  12)                  1.0862         0.365170   
     34. B(H  29,C  13)                  1.0846         0.367357   
     35. B(H  30,C  15)                  1.0953         0.353164   
     36. B(H  31,C  15)                  1.0959         0.352380   
     37. B(H  32,C  17)                  1.0770         0.377742   
     38. B(H  33,C  18)                  1.0798         0.373805   
     39. B(H  34,C  19)                  1.0801         0.373426   
     40. B(H  35,C  20)                  1.0764         0.378617   
     41. A(Cl  2,Zr  0,C  16)           87.7266         0.334823   
     42. A(Cl  1,Zr  0,C   6)          112.8878         0.324262   
     43. A(C   6,Zr  0,C  16)          132.5764         0.264849   
     44. A(Cl  1,Zr  0,Cl  2)           90.0000         0.417877   
     45. A(N   3,Zr  0,C   6)           67.3478         0.319076   
     46. A(Cl  2,Zr  0,N   3)           91.6616         0.410627   
     47. A(Cl  2,Zr  0,C   6)          119.1982         0.324262   
     48. A(N   3,Zr  0,C  16)           74.1423         0.329404   
     49. A(Cl  1,Zr  0,C  16)          104.6378         0.334823   
     50. A(C   4,N   3,C  14)          118.2958         0.433296   
     51. A(Zr  0,N   3,C   4)          125.1438         0.418196   
     52. A(Zr  0,N   3,C  14)          110.4522         0.417964   
     53. A(C   5,C   4,C  11)          121.1437         0.403714   
     54. A(N   3,C   4,C  11)          122.4487         0.434832   
     55. A(N   3,C   4,C   5)          115.9718         0.402536   
     56. A(C   6,C   5,H  22)          109.8067         0.331110   
     57. A(C   6,C   5,H  21)          109.2876         0.330984   
     58. A(H  21,C   5,H  22)          107.0980         0.288451   
     59. A(C   4,C   5,H  22)          108.3522         0.327617   
     60. A(C   4,C   5,H  21)          109.4650         0.327492   
     61. A(C   4,C   5,C   6)          112.6736         0.378502   
     62. A(C   5,C   6,C   7)          126.7020         0.420190   
     63. A(Zr  0,C   6,C   7)           86.6299         0.339686   
     64. A(Zr  0,C   6,C   5)          105.4722         0.311340   
     65. A(Zr  0,C   6,C  10)           83.3148         0.319482   
     66. A(C   5,C   6,C  10)          126.7290         0.393497   
     67. A(C   7,C   6,C  10)          105.9042         0.432317   
     68. A(C   6,C   7,C   8)          109.6931         0.431852   
     69. A(C   8,C   7,H  23)          123.7923         0.343351   
     70. A(C   6,C   7,H  23)          126.4818         0.366024   
     71. A(C   7,C   8,C   9)          109.3951         0.432649   
     72. A(C   7,C   8,H  24)          124.2435         0.343277   
     73. A(C   9,C   8,H  24)          126.3084         0.366586   
     74. A(C   8,C   9,H  25)          127.5384         0.367000   
     75. A(C  10,C   9,H  25)          126.1189         0.344595   
     76. A(C   8,C   9,C  10)          106.3136         0.433916   
     77. A(C   6,C  10,H  26)          126.0558         0.344287   
     78. A(C   6,C  10,C   9)          108.6412         0.405381   
     79. A(C   9,C  10,H  26)          125.3001         0.344881   
     80. A(C  12,C  11,H  27)          120.5911         0.353986   
     81. A(C   4,C  11,H  27)          120.8451         0.354867   
     82. A(C   4,C  11,C  12)          118.4993         0.434981   
     83. A(C  13,C  12,H  28)          120.2090         0.353475   
     84. A(C  11,C  12,H  28)          120.0237         0.353657   
     85. A(C  11,C  12,C  13)          119.5892         0.433599   
     86. A(C  14,C  13,H  29)          121.0132         0.354383   
     87. A(C  12,C  13,H  29)          120.3148         0.353833   
     88. A(C  12,C  13,C  14)          118.4162         0.434078   
     89. A(C  13,C  14,C  15)          121.6079         0.401461   
     90. A(N   3,C  14,C  15)          113.9284         0.400674   
     91. A(N   3,C  14,C  13)          122.3892         0.433923   
     92. A(C  14,C  15,H  30)          111.0364         0.326672   
     93. A(H  30,C  15,H  31)          107.4927         0.288970   
     94. A(C  16,C  15,H  31)          109.6274         0.330106   
     95. A(C  14,C  15,C  16)          109.6668         0.375564   
     96. A(C  14,C  15,H  31)          108.5587         0.326553   
     97. A(C  16,C  15,H  30)          110.4067         0.330227   
     98. A(C  17,C  16,C  20)          108.0656         0.403906   
     99. A(C  15,C  16,C  20)          126.9971         0.392392   
    100. A(Zr  0,C  16,C  20)           85.3631         0.330143   
    101. A(C  15,C  16,C  17)          123.6945         0.390888   
    102. A(Zr  0,C  16,C  17)           90.6168         0.328948   
    103. A(Zr  0,C  16,C  15)           83.5985         0.320175   
    104. A(C  16,C  17,C  18)          106.4981         0.433032   
    105. A(C  18,C  17,H  32)          125.9259         0.368120   
    106. A(C  16,C  17,H  32)          127.5665         0.343224   
    107. A(C  17,C  18,C  19)          109.0977         0.433117   
    108. A(C  19,C  18,H  33)          124.1540         0.342685   
    109. A(C  17,C  18,H  33)          126.3592         0.367459   
    110. A(C  18,C  19,C  20)          109.7566         0.431179   
    111. A(C  20,C  19,H  34)          126.2801         0.365827   
    112. A(C  18,C  19,H  34)          123.8053         0.342627   
    113. A(C  16,C  20,C  19)          106.0440         0.432797   
    114. A(C  19,C  20,H  35)          127.3670         0.366693   
    115. A(C  16,C  20,H  35)          126.5888         0.344624   
    116. D(C  14,N   3,Zr  0,C  16)     26.3248         0.001875   
    117. D(C   4,N   3,Zr  0,C  16)   -125.4657         0.001875   
    118. D(C   4,N   3,Zr  0,Cl  2)    147.3713         0.001875   
    119. D(C  14,N   3,Zr  0,Cl  2)    -60.8382         0.001875   
    120. D(C   4,N   3,Zr  0,C   6)     26.2584         0.001875   
    121. D(C  14,N   3,Zr  0,C   6)    178.0489         0.001875   
    122. D(C  11,C   4,N   3,C  14)      6.6250         0.033438   
    123. D(C   5,C   4,N   3,Zr  0)    -16.0713         0.033438   
    124. D(C  11,C   4,N   3,Zr  0)    156.4262         0.033438   
    125. D(C   5,C   4,N   3,C  14)   -165.8724         0.033438   
    126. D(H  22,C   5,C   4,N   3)    104.2470         0.012298   
    127. D(H  21,C   5,C   4,N   3)   -139.2796         0.012298   
    128. D(C   6,C   5,C   4,C  11)    169.9424         0.012298   
    129. D(H  21,C   5,C   4,C  11)     48.1172         0.012298   
    130. D(C   6,C   5,C   4,N   3)    -17.4544         0.012298   
    131. D(C   7,C   6,Zr  0,Cl  2)     18.3253         0.001524   
    132. D(C   7,C   6,C   5,H  22)    175.6235         0.014914   
    133. D(Zr  0,C   6,C   5,C   4)     33.9816         0.014914   
    134. D(C   7,C   6,C   5,C   4)    -63.5029         0.014914   
    135. D(Zr  0,C   6,C   5,H  21)    155.9071         0.014914   
    136. D(Zr  0,C   6,C   5,H  22)    -86.8920         0.014914   
    137. D(C   7,C   6,Zr  0,N   3)     96.9504         0.001524   
    138. D(C   7,C   6,Zr  0,Cl  1)    -85.3207         0.001524   
    139. D(C   5,C   6,Zr  0,C  16)      7.9594         0.001524   
    140. D(C   5,C   6,Zr  0,N   3)    -30.2712         0.001524   
    141. D(C   7,C   6,C   5,H  21)     58.4226         0.014914   
    142. D(C   5,C   6,Zr  0,Cl  2)   -108.8963         0.001524   
    143. D(C   5,C   6,Zr  0,Cl  1)    147.4576         0.001524   
    144. D(C   8,C   7,C   6,C  10)     -2.3352         0.042158   
    145. D(C   8,C   7,C   6,C   5)   -173.4467         0.042158   
    146. D(C   8,C   7,C   6,Zr  0)     79.7305         0.042158   
    147. D(H  23,C   7,C   6,C   5)      4.5220         0.042158   
    148. D(H  23,C   7,C   6,Zr  0)   -102.3008         0.042158   
    149. D(H  24,C   8,C   7,H  23)      1.2876         0.017457   
    150. D(H  24,C   8,C   7,C   6)    179.3223         0.017457   
    151. D(C   9,C   8,C   7,C   6)      1.8267         0.017457   
    152. D(C   9,C   8,C   7,H  23)   -176.2081         0.017457   
    153. D(H  25,C   9,C   8,H  24)      0.2523         0.039617   
    154. D(H  25,C   9,C   8,C   7)    177.6833         0.039617   
    155. D(C  10,C   9,C   8,H  24)   -177.8672         0.039617   
    156. D(C  10,C   9,C   8,C   7)     -0.4362         0.039617   
    157. D(H  26,C  10,C   9,H  25)      1.4518         0.018043   
    158. D(H  26,C  10,C   9,C   8)    179.6058         0.018043   
    159. D(C   6,C  10,C   9,H  25)   -179.1373         0.018043   
    160. D(C   6,C  10,C   9,C   8)     -0.9833         0.018043   
    161. D(H  26,C  10,C   6,C   5)     -7.4042         0.019155   
    162. D(H  26,C  10,C   6,Zr  0)     96.9355         0.019155   
    163. D(C   9,C  10,C   6,C   7)      2.0823         0.019155   
    164. D(C   9,C  10,C   6,Zr  0)    -82.4697         0.019155   
    165. D(C   9,C  10,C   6,C   5)    173.1906         0.019155   
    166. D(H  27,C  11,C   4,C   5)     -7.3904         0.027355   
    167. D(H  27,C  11,C   4,N   3)   -179.5073         0.027355   
    168. D(C  12,C  11,C   4,C   5)    169.7051         0.027355   
    169. D(C  12,C  11,C   4,N   3)     -2.4119         0.027355   
    170. D(H  28,C  12,C  11,H  27)     -0.3402         0.026516   
    171. D(H  28,C  12,C  11,C   4)   -177.4433         0.026516   
    172. D(C  13,C  12,C  11,H  27)    174.8216         0.026516   
    173. D(C  13,C  12,C  11,C   4)     -2.2816         0.026516   
    174. D(H  29,C  13,C  12,H  28)      3.4969         0.026346   
    175. D(H  29,C  13,C  12,C  11)   -171.6557         0.026346   
    176. D(C  14,C  13,C  12,H  28)    177.7473         0.026346   
    177. D(C  14,C  13,C  12,C  11)      2.5947         0.026346   
    178. D(C  13,C  14,N   3,Zr  0)   -160.2414         0.033214   
    179. D(C  15,C  14,C  13,H  29)     13.3309         0.026864   
    180. D(C  15,C  14,C  13,C  12)   -160.8777         0.026864   
    181. D(N   3,C  14,C  13,H  29)    175.9541         0.026864   
    182. D(N   3,C  14,C  13,C  12)      1.7456         0.026864   
    183. D(C  15,C  14,N   3,C   4)    157.5629         0.033214   
    184. D(C  15,C  14,N   3,Zr  0)      3.6018         0.033214   
    185. D(C  13,C  14,N   3,C   4)     -6.2804         0.033214   
    186. D(H  31,C  15,C  14,N   3)     58.5485         0.011763   
    187. D(H  30,C  15,C  14,C  13)    -19.5089         0.011763   
    188. D(H  30,C  15,C  14,N   3)    176.5071         0.011763   
    189. D(C  16,C  15,C  14,C  13)    102.7791         0.011763   
    190. D(C  16,C  15,C  14,N   3)    -61.2049         0.011763   
    191. D(C  17,C  16,C  15,H  31)   -137.2305         0.014285   
    192. D(C  17,C  16,C  15,C  14)    -18.1329         0.014285   
    193. D(Zr  0,C  16,C  15,H  31)    -50.7731         0.014285   
    194. D(Zr  0,C  16,C  15,H  30)   -169.0133         0.014285   
    195. D(Zr  0,C  16,C  15,C  14)     68.3245         0.014285   
    196. D(C  17,C  16,Zr  0,N   3)     75.5523         0.001535   
    197. D(C  17,C  16,Zr  0,Cl  2)    167.9275         0.001535   
    198. D(C  17,C  16,Zr  0,Cl  1)   -102.6666         0.001535   
    199. D(C  15,C  16,Zr  0,C   6)    -84.7200         0.001535   
    200. D(C  15,C  16,Zr  0,N   3)    -48.3011         0.001535   
    201. D(C  17,C  16,C  15,H  30)    104.5293         0.014285   
    202. D(C  15,C  16,Zr  0,Cl  2)     44.0741         0.001535   
    203. D(C  15,C  16,Zr  0,Cl  1)    133.4800         0.001535   
    204. D(H  32,C  17,C  16,C  15)    -18.4772         0.018533   
    205. D(H  32,C  17,C  16,Zr  0)   -101.1903         0.018533   
    206. D(C  18,C  17,C  16,C  20)     -7.5902         0.018533   
    207. D(C  18,C  17,C  16,C  15)    160.4466         0.018533   
    208. D(C  18,C  17,C  16,Zr  0)     77.7335         0.018533   
    209. D(H  33,C  18,C  17,H  32)     -2.0771         0.040952   
    210. D(H  33,C  18,C  17,C  16)    178.9764         0.040952   
    211. D(C  19,C  18,C  17,H  32)   -175.1177         0.040952   
    212. D(C  19,C  18,C  17,C  16)      5.9357         0.040952   
    213. D(H  34,C  19,C  18,H  33)      0.2884         0.017139   
    214. D(H  34,C  19,C  18,C  17)    173.5168         0.017139   
    215. D(C  20,C  19,C  18,H  33)   -175.3924         0.017139   
    216. D(C  20,C  19,C  18,C  17)     -2.1640         0.017139   
    217. D(H  35,C  20,C  19,H  34)      1.6652         0.038771   
    218. D(H  35,C  20,C  19,C  18)    177.2128         0.038771   
    219. D(C  16,C  20,C  19,H  34)   -178.1977         0.038771   
    220. D(C  16,C  20,C  19,C  18)     -2.6500         0.038771   
    221. D(H  35,C  20,C  16,C  15)     18.8342         0.019383   
    222. D(H  35,C  20,C  16,Zr  0)     97.2286         0.019383   
    223. D(C  19,C  20,C  16,C  17)      6.2279         0.019383   
    224. D(C  19,C  20,C  16,C  15)   -161.3016         0.019383   
    225. D(C  19,C  20,C  16,Zr  0)    -82.9072         0.019383   
    -----------------------------------------------------------------

Number of atoms                         .... 36
Number of degrees of freedom            .... 225


         *************************************************************
         *                GEOMETRY OPTIMIZATION CYCLE   1            *
         *************************************************************
---------------------------------
CARTESIAN COORDINATES (ANGSTROEM)
---------------------------------
  Zr    0.000000    0.000000    0.000000
  Cl    0.000000    0.000000   -2.493000
  Cl    2.493000    0.000000    0.000000
  N    -0.064197   -0.050067    2.212503
  C    -1.018205    0.529357    2.977335
  C    -1.881030    1.555671    2.290673
  C    -1.281583    2.053099    1.021751
  C    -0.130705    2.735859    0.890128
  C     0.025202    3.169042   -0.482011
  C    -1.047424    2.789989   -1.193561
  C    -1.914493    2.089276   -0.277526
  C    -1.301091    0.100558    4.267322
  C    -0.608213   -0.998103    4.769238
  C     0.307722   -1.663506    3.957045
  C     0.539977   -1.168671    2.678138
  C     1.161953   -2.025212    1.597463
  C     0.102116   -2.488640    0.650545
  C    -1.314081   -2.481449    0.962121
  C    -1.960703   -2.536127   -0.207661
  C    -0.996469   -2.720593   -1.274480
  C     0.247898   -2.732038   -0.765421
  H    -2.051013    2.402532    2.967710
  H    -2.859606    1.103866    2.087380
  H     0.570132    2.969756    1.676688
  H     0.862349    3.745477   -0.845638
  H    -1.250132    2.990199   -2.232923
  H    -2.868169    1.658720   -0.529859
  H    -2.077258    0.579097    4.854804
  H    -0.839079   -1.380165    5.759464
  H     0.753111   -2.596572    4.284620
  H     1.689082   -2.882414    2.029908
  H     1.900718   -1.422727    1.056877
  H    -1.772026   -2.424538    1.935226
  H    -3.031208   -2.562791   -0.346749
  H    -1.267010   -2.896856   -2.305195
  H     1.169879   -2.891731   -1.297378

----------------------------
CARTESIAN COORDINATES (A.U.)
----------------------------
  NO LB    ZA    FRAG    MASS        X           Y           Z
   0 Zr 40.0000    0    91.220    0.000000    0.000000    0.000000
   1 Cl 17.0000    0    35.453    0.000000    0.000000   -4.711087
   2 Cl 17.0000    0    35.453    4.711087    0.000000    0.000000
   3 N   7.0000    0    14.007   -0.121315   -0.094612    4.181024
   4 C   6.0000    0    12.011   -1.924128    1.000340    5.626347
   5 C   6.0000    0    12.011   -3.554632    2.939792    4.328744
   6 C   6.0000    0    12.011   -2.421841    3.879794    1.930830
   7 C   6.0000    0    12.011   -0.246997    5.170024    1.682097
   8 C   6.0000    0    12.011    0.047625    5.988621   -0.910869
   9 C   6.0000    0    12.011   -1.979345    5.272316   -2.255503
  10 C   6.0000    0    12.011   -3.617867    3.948160   -0.524447
  11 C   6.0000    0    12.011   -2.458706    0.190027    8.064069
  12 C   6.0000    0    12.011   -1.149357   -1.886142    9.012553
  13 C   6.0000    0    12.011    0.581511   -3.143570    7.477732
  14 C   6.0000    0    12.011    1.020408   -2.208469    5.060947
  15 C   6.0000    0    12.011    2.195773   -3.827097    3.018768
  16 C   6.0000    0    12.011    0.192971   -4.702848    1.229351
  17 C   6.0000    0    12.011   -2.483253   -4.689259    1.818145
  18 C   6.0000    0    12.011   -3.705191   -4.792586   -0.392422
  19 C   6.0000    0    12.011   -1.883054   -5.141175   -2.408418
  20 C   6.0000    0    12.011    0.468458   -5.162803   -1.446436
  21 H   1.0000    0     1.008   -3.875853    4.540128    5.608158
  22 H   1.0000    0     1.008   -5.403872    2.086004    3.944576
  23 H   1.0000    0     1.008    1.077394    5.612026    3.168482
  24 H   1.0000    0     1.008    1.629603    7.077926   -1.598024
  25 H   1.0000    0     1.008   -2.362407    5.650657   -4.219614
  26 H   1.0000    0     1.008   -5.420055    3.134527   -1.001288
  27 H   1.0000    0     1.008   -3.925449    1.094334    9.174249
  28 H   1.0000    0     1.008   -1.585630   -2.608134   10.883809
  29 H   1.0000    0     1.008    1.423173   -4.906810    8.096759
  30 H   1.0000    0     1.008    3.191903   -5.446974    3.835971
  31 H   1.0000    0     1.008    3.591837   -2.688565    1.997209
  32 H   1.0000    0     1.008   -3.348644   -4.581712    3.657047
  33 H   1.0000    0     1.008   -5.728153   -4.842973   -0.655261
  34 H   1.0000    0     1.008   -2.394302   -5.474265   -4.356187
  35 H   1.0000    0     1.008    2.210752   -5.464580   -2.451690

      -----------------------------------------------------------      
     |                   =====================                   |     
     |                           x T B                           |     
     |                   =====================                   |     
     |                         S. Grimme                         |     
     |          Mulliken Center for Theoretical Chemistry        |     
     |                    University of Bonn                     |     
      -----------------------------------------------------------      

   * xtb version 6.7.1 (edcfbbe) compiled by 'albert@albert-system' on 2024-07-22

   xtb is free software: you can redistribute it and/or modify it under
   the terms of the GNU Lesser General Public License as published by
   the Free Software Foundation, either version 3 of the License, or
   (at your option) any later version.
   
   xtb is distributed in the hope that it will be useful,
   but WITHOUT ANY WARRANTY; without even the implied warranty of
   MERCHANTABILITY or FITNESS FOR A PARTICULAR PURPOSE.  See the
   GNU Lesser General Public License for more details.
   
   Cite this work as:
   * C. Bannwarth, E. Caldeweyher, S. Ehlert, A. Hansen, P. Pracht,
     J. Seibert, S. Spicher, S. Grimme, WIREs Comput. Mol. Sci., 2020, 11,
     e01493. DOI: 10.1002/wcms.1493
   
   for GFN2-xTB:
   * C. Bannwarth, S. Ehlert and S. Grimme., J. Chem. Theory Comput., 2019,
     15, 1652-1671. DOI: 10.1021/acs.jctc.8b01176
   for GFN1-xTB:
   * S. Grimme, C. Bannwarth, P. Shushkov, J. Chem. Theory Comput., 2017,
     13, 1989-2009. DOI: 10.1021/acs.jctc.7b00118
   for GFN0-xTB:
   * P. Pracht, E. Caldeweyher, S. Ehlert, S. Grimme, ChemRxiv, 2019, preprint.
     DOI: 10.26434/chemrxiv.8326202.v1
   for GFN-FF:
   * S. Spicher and S. Grimme, Angew. Chem. Int. Ed., 2020, 59, 15665-15673.
     DOI: 10.1002/anie.202004239
   
   for ALPB and GBSA implicit solvation:
   * S. Ehlert, M. Stahn, S. Spicher, S. Grimme, J. Chem. Theory Comput.,
     2021, 17, 4250-4261. DOI: 10.1021/acs.jctc.1c00471
   
   for ddCOSMO and CPCM-X implicit solvation:
   * M. Stahn, S. Ehlert, S. Grimme, J. Phys. Chem. A,
     2023, XX, XXXX-XXXX. DOI: 10.1021/acs.jpca.3c04382
   
   for DFT-D4:
   * E. Caldeweyher, C. Bannwarth and S. Grimme, J. Chem. Phys., 2017,
     147, 034112. DOI: 10.1063/1.4993215
   * E. Caldeweyher, S. Ehlert, A. Hansen, H. Neugebauer, S. Spicher,
     C. Bannwarth and S. Grimme, J. Chem. Phys., 2019, 150, 154122.
     DOI: 10.1063/1.5090222
   * E. Caldeweyher, J.-M. Mewes, S. Ehlert and S. Grimme, Phys. Chem. Chem. Phys.
     2020, 22, 8499-8512. DOI: 10.1039/D0CP00502A
   
   for sTDA-xTB:
   * S. Grimme and C. Bannwarth, J. Chem. Phys., 2016, 145, 054103.
     DOI: 10.1063/1.4959605
   
   in the mass-spec context:
   * V. Asgeirsson, C. Bauer and S. Grimme, Chem. Sci., 2017, 8, 4879.
     DOI: 10.1039/c7sc00601b
   * J. Koopman and S. Grimme, ACS Omega 2019, 4, 12, 15120-15133.
     DOI: 10.1021/acsomega.9b02011
   
   for metadynamics refer to:
   * S. Grimme, J. Chem. Theory Comput., 2019, 155, 2847-2862
     DOI: 10.1021/acs.jctc.9b00143
   
   for SPH calculations refer to:
   * S. Spicher and S. Grimme, J. Chem. Theory Comput., 2021, 17, 1701-1714
     DOI: 10.1021/acs.jctc.0c01306
   
   for ONIOM refer to:
   * C. Plett, A. Katbashev, S. Ehlert, S. Grimme, M. Bursch,
     Phys. Chem. Chem. Phys., 2023, 25, 17860-17868. DOI: 10.1039/D3CP02178E
   
   for DIPRO refer to:
   * J. Kohn, N. Gildemeister, S. Grimme, D. Fazzi, A. Hansen,
     J. Chem. Phys., 2023, just accepted.
   
   for PTB refer to:
   * S. Grimme, M. Mueller, A. Hansen, J. Chem. Phys., 2023, 158, 124111.
     DOI: 10.1063/5.0137838
   
   with help from (in alphabetical order)
   P. Atkinson, C. Bannwarth, F. Bohle, G. Brandenburg, E. Caldeweyher
   M. Checinski, S. Dohm, S. Ehlert, S. Ehrlich, I. Gerasimov, C. Hölzer
   A. Katbashev, J. Kohn, J. Koopman, C. Lavigne, S. Lehtola, F. März, M. Müller,
   F. Musil, H. Neugebauer, J. Pisarek, C. Plett, P. Pracht, F. Pultar,
   J. Seibert, P. Shushkov, S. Spicher, M. Stahn, M. Steiner, T. Strunk,
   J. Stückrath, T. Rose, and J. Unsleber
   
 * started run on 2025/11/20 at 22:30:26.567     
   ID    Z sym.   atoms
    1   40 Zr     1
    2   17 Cl     2, 3
    3    7 N      4
    4    6 C      5-21
    5    1 H      22-36

           -------------------------------------------------
          |                Calculation Setup                |
           -------------------------------------------------

          program call               : otool_xtb final_relax_0_XTB.xyz --grad -c 0 -u 0 -P 1 --namespace final_relax_0 --input final_relax_0_XTB.input.tmp --acc 0.200000
          hostname                   : saraswati
          calculation namespace      : final_relax_0
          coordinate file            : final_relax_0_XTB.xyz
          omp threads                :                     1


molecular fragmentation (1/2 indicates fragments):
111111111111111111111111111111112111
# atoms in fragment 1/2:    35     1
 fragment masses (1/2) :      394.43        1.01
CMA distance (Bohr)    :   5.933
constraining FC (au)   :  0.0500

           -------------------------------------------------
          |                 G F N 2 - x T B                 |
           -------------------------------------------------

        Reference                      10.1021/acs.jctc.8b01176
      * Hamiltonian:
        H0-scaling (s, p, d)           1.850000    2.230000    2.230000
        zeta-weighting                 0.500000
      * Dispersion:
        s8                             2.700000
        a1                             0.520000
        a2                             5.000000
        s9                             5.000000
      * Repulsion:
        kExp                           1.500000    1.000000
        rExp                           1.000000
      * Coulomb:
        alpha                          2.000000
        third order                    shell-resolved
        anisotropic                    true
        a3                             3.000000
        a5                             4.000000
        cn-shift                       1.200000
        cn-exp                         4.000000
        max-rad                        5.000000


          ...................................................
          :                      SETUP                      :
          :.................................................:
          :  # basis functions                 117          :
          :  # atomic orbitals                 114          :
          :  # shells                           60          :
          :  # electrons                       106          :
          :  max. iterations                   250          :
          :  Hamiltonian                  GFN2-xTB          :
          :  restarted?                      false          :
          :  GBSA solvation                  false          :
          :  PC potential                    false          :
          :  electronic temp.          300.0000000     K    :
          :  accuracy                    0.2000000          :
          :  -> integral cutoff          0.3198970E+02      :
          :  -> integral neglect         0.2000000E-08      :
          :  -> SCF convergence          0.2000000E-06 Eh   :
          :  -> wf. convergence          0.2000000E-04 e    :
          :  Broyden damping             0.4000000          :
          :  net charge                          0          :
          :  unpaired electrons                  0          :
          ...................................................

 iter      E             dE          RMSdq      gap      omega  full diag
   1    -58.2127413 -0.582127E+02  0.906E+00    0.21       0.0  T
   2    -58.5001262 -0.287385E+00  0.404E+00    1.65       1.0  T
   3    -58.6395415 -0.139415E+00  0.245E+00    0.92       1.0  T
   4    -58.5284413  0.111100E+00  0.404E+00    0.26       1.0  T
   5    -58.6368635 -0.108422E+00  0.783E-01    0.91       1.0  T
   6    -58.6452445 -0.838098E-02  0.485E-01    0.78       1.0  T
   7    -58.6478289 -0.258439E-02  0.228E-01    0.72       1.0  T
   8    -58.6482484 -0.419523E-03  0.151E-01    0.67       1.0  T
   9    -58.6483548 -0.106385E-03  0.584E-02    0.70       1.0  T
  10    -58.6483868 -0.319385E-04  0.427E-02    0.69       1.0  T
  11    -58.6484009 -0.141398E-04  0.287E-02    0.68       1.0  T
  12    -58.6484090 -0.805988E-05  0.162E-02    0.69       1.0  T
  13    -58.6484110 -0.203330E-05  0.133E-02    0.69       1.3  T
  14    -58.6484126 -0.158797E-05  0.651E-03    0.69       2.6  T
  15    -58.6484131 -0.470251E-06  0.325E-03    0.69       5.1  T
  16    -58.6484131 -0.774917E-07  0.132E-03    0.69      12.6  T
  17    -58.6484132 -0.144280E-07  0.102E-03    0.69      16.4  T
  18    -58.6484132 -0.159861E-08  0.852E-04    0.69      19.6  T
  19    -58.6484132 -0.728390E-08  0.269E-04    0.69      61.9  T
  20    -58.6484132 -0.383309E-09  0.146E-04    0.69     114.4  T
  21    -58.6484132  0.327105E-09  0.241E-04    0.69      69.1  T
  22    -58.6484132 -0.384723E-09  0.135E-04    0.69     123.3  T

   *** convergence criteria satisfied after 22 iterations ***

         #    Occupation            Energy/Eh            Energy/eV
      -------------------------------------------------------------
         1        2.0000           -1.0740802             -29.2272
       ...           ...                  ...                  ...
        47        2.0000           -0.4047907             -11.0149
        48        2.0000           -0.3968082             -10.7977
        49        2.0000           -0.3942620             -10.7284
        50        2.0000           -0.3714222             -10.1069
        51        2.0000           -0.3669660              -9.9857
        52        2.0000           -0.3491414              -9.5006
        53        2.0000           -0.3433919              -9.3442 (HOMO)
        54        0.0000           -0.3180039              -8.6533 (LUMO)
        55                         -0.3074987              -8.3675
        56                         -0.3059959              -8.3266
        57                         -0.2991716              -8.1409
        58                         -0.2975449              -8.0966
       ...                                ...                  ...
       114                          2.0344341              55.3598
      -------------------------------------------------------------
                  HL-Gap            0.0253880 Eh            0.6908 eV
             Fermi-level           -0.3306968 Eh           -8.9987 eV

 SCC (total)                   0 d,  0 h,  0 min,  0.136 sec
 SCC setup                      ...        0 min,  0.001 sec (  0.546%)
 Dispersion                     ...        0 min,  0.001 sec (  0.786%)
 classical contributions        ...        0 min,  0.000 sec (  0.133%)
 integral evaluation            ...        0 min,  0.025 sec ( 18.331%)
 iterations                     ...        0 min,  0.069 sec ( 50.942%)
 molecular gradient             ...        0 min,  0.040 sec ( 28.999%)
 printout                       ...        0 min,  0.000 sec (  0.235%)

         :::::::::::::::::::::::::::::::::::::::::::::::::::::
         ::                     SUMMARY                     ::
         :::::::::::::::::::::::::::::::::::::::::::::::::::::
         :: total energy             -57.805824747031 Eh    ::
         :: gradient norm              0.182490524212 Eh/a0 ::
         :: HOMO-LUMO gap              0.690843237379 eV    ::
         ::.................................................::
         :: SCC energy               -58.646994252888 Eh    ::
         :: -> isotropic ES            0.072681114302 Eh    ::
         :: -> anisotropic ES         -0.006494898817 Eh    ::
         :: -> anisotropic XC          0.022753638931 Eh    ::
         :: -> dispersion             -0.049399263748 Eh    ::
         :: repulsion energy           0.841169505857 Eh    ::
         :: add. restraining           0.000000000000 Eh    ::
         :: total charge              -0.000000000000 e     ::
         :::::::::::::::::::::::::::::::::::::::::::::::::::::


Property printout bound to 'properties.out'

           -------------------------------------------------
          | TOTAL ENERGY              -57.805824747031 Eh   |
          | GRADIENT NORM               0.182490524212 Eh/α |
          | HOMO-LUMO GAP               0.690843237379 eV   |
           -------------------------------------------------

------------------------------------------------------------------------
 * finished run on 2025/11/20 at 22:30:26.756     
------------------------------------------------------------------------
 total:
 * wall-time:     0 d,  0 h,  0 min,  0.188 sec
 *  cpu-time:     0 d,  0 h,  0 min,  0.179 sec
 * ratio c/w:     0.951 speedup
 SCF:
 * wall-time:     0 d,  0 h,  0 min,  0.137 sec
 *  cpu-time:     0 d,  0 h,  0 min,  0.136 sec
 * ratio c/w:     0.992 speedup


-------------------------   --------------------
FINAL SINGLE POINT ENERGY       -57.805824747030
-------------------------   --------------------


-------------
DIPOLE MOMENT
-------------
                                X             Y             Z
Total Dipole Moment    :     -1.38700      -0.30100       4.03300
                        -----------------------------------------
Magnitude (a.u.)       :      4.27545
Magnitude (Debye)      :     10.86733

------------------------------------------------------------------------------
                         ORCA GEOMETRY RELAXATION STEP
------------------------------------------------------------------------------

Reading the OPT-File                    .... done
Getting information on internals        .... done
Copying old internal coords+grads       .... done
Making the new internal coordinates     .... (2022 redundants) done
Validating the new internal coordinates .... (2022 redundants) done
Calculating the B-matrix                .... done
Calculating the G,G- and P matrices     .... done
Transforming gradient to internals      .... done
Projecting the internal gradient        .... done
Number of atoms                         ....  36
Number of internal coordinates          .... 225
Current Energy                          ....   -57.805824747 Eh
Current gradient norm                   ....     0.182490524 Eh/bohr
Maximum allowed component of the step   ....  0.300
Current trust radius                    ....  0.300
Evaluating the initial hessian          ....  (Almloef) done
Projecting the Hessian                  .... done
Forming the augmented Hessian           .... done
Diagonalizing the augmented Hessian     .... done
Last element of RFO vector              ....  0.845835977
Lowest eigenvalues of augmented Hessian:
 -0.096021070  0.012458704  0.018613065  0.020559067  0.021447780
Length of the computed step             ....  0.630669628
Warning: the length of the step is outside the trust region - taking restricted step instead
The input lambda is                     ....     0.011425
   iter:   5  x=   -0.040240  g=   59.828775 f(x)=     1.586200
   iter:  10  x=   -0.338784  g=    0.425339 f(x)=     0.011009
The output lambda is                    ....    -0.341299 (14 iterations)
The final length of the internal step   ....  0.300000000
Converting the step to Cartesian space:
 Initial RMS(Int)=    0.0200000000
Transforming coordinates:
 Iter   0:  RMS(Cart)=    0.0978910852 RMS(Int)=    0.4185137676
 Iter   5:  RMS(Cart)=    0.0000000858 RMS(Int)=    0.0000000547
done
Storing new coordinates                 .... done

                                .--------------------.
          ----------------------|Geometry convergence|-------------------------
          Item                value                   Tolerance       Converged
          ---------------------------------------------------------------------
          RMS gradient        0.0120969737            0.0001000000      NO
          MAX gradient        0.0650199485            0.0003000000      NO
          RMS step            0.0200000000            0.0020000000      NO
          MAX step            0.0890228873            0.0040000000      NO
          ........................................................
          Max(Bonds)      0.0471      Max(Angles)    5.03
          Max(Dihed)        4.53      Max(Improp)    0.00
          ---------------------------------------------------------------------

The optimization has not yet converged - more geometry cycles are needed


    ---------------------------------------------------------------------------
                         Redundant Internal Coordinates
                            (Angstroem and degrees)

        Definition                    Value    dE/dq     Step     New-Value
    ----------------------------------------------------------------------------
     1. B(Cl  1,Zr  0)                2.4930  0.024601 -0.0221    2.4709   
     2. B(Cl  2,Zr  0)                2.4930  0.010856 -0.0098    2.4832   
     3. B(N   3,Zr  0)                2.2140 -0.016160  0.0136    2.2276   
     4. B(C   4,N   3)                1.3531  0.004264 -0.0025    1.3506   
     5. B(C   5,C   4)                1.5064  0.003831 -0.0024    1.5041   
     6. B(C   6,C   5)                1.4889 -0.007843  0.0057    1.4947   
     7. B(C   6,Zr  0)                2.6271  0.037162 -0.0471    2.5800   
     8. B(C   7,C   6)                1.3446 -0.065020  0.0322    1.3768   
     9. B(C   8,C   7)                1.4473  0.027304 -0.0163    1.4310   
    10. B(C   9,C   8)                1.3418 -0.049428  0.0241    1.3660   
    11. B(C  10,C   9)                1.4429  0.019382 -0.0126    1.4302   
    12. B(C  10,C   6)                1.4457  0.009467 -0.0064    1.4393   
    13. B(C  11,C   4)                1.3885  0.002172 -0.0013    1.3872   
    14. B(C  12,C  11)                1.3925  0.009405 -0.0054    1.3871   
    15. B(C  13,C  12)                1.3933  0.010958 -0.0062    1.3872   
    16. B(C  14,C  13)                1.3908 -0.000741  0.0005    1.3913   
    17. B(C  14,N   3)                1.3539 -0.008675  0.0060    1.3599   
    18. B(C  15,C  14)                1.5127  0.015979 -0.0111    1.5017   
    19. B(C  16,C  15)                1.4949 -0.016832  0.0111    1.5060   
    20. B(C  16,Zr  0)                2.5743  0.005981 -0.0098    2.5645   
    21. B(C  17,C  16)                1.4501  0.009814 -0.0066    1.4435   
    22. B(C  18,C  17)                1.3377 -0.055467  0.0271    1.3648   
    23. B(C  19,C  18)                1.4498  0.024089 -0.0145    1.4353   
    24. B(C  20,C  19)                1.3445 -0.044305  0.0217    1.3662   
    25. B(C  20,C  16)                1.4441  0.005748 -0.0042    1.4399   
    26. B(H  21,C   5)                1.0975 -0.000361  0.0003    1.0977   
    27. B(H  22,C   5)                1.0968 -0.000837  0.0006    1.0975   
    28. B(H  23,C   7)                1.0791 -0.005236  0.0039    1.0830   
    29. B(H  24,C   8)                1.0795 -0.000330  0.0002    1.0797   
    30. B(H  25,C   9)                1.0777  0.001590 -0.0012    1.0765   
    31. B(H  26,C  10)                1.0764 -0.006658  0.0049    1.0813   
    32. B(H  27,C  11)                1.0847  0.004653 -0.0035    1.0812   
    33. B(H  28,C  12)                1.0862  0.004183 -0.0031    1.0831   
    34. B(H  29,C  13)                1.0846  0.004964 -0.0037    1.0809   
    35. B(H  30,C  15)                1.0953 -0.004568  0.0035    1.0988   
    36. B(H  31,C  15)                1.0959  0.012453 -0.0095    1.0864   
    37. B(H  32,C  17)                1.0770 -0.004195  0.0031    1.0801   
    38. B(H  33,C  18)                1.0798 -0.000633  0.0005    1.0803   
    39. B(H  34,C  19)                1.0801  0.001000 -0.0007    1.0794   
    40. B(H  35,C  20)                1.0764 -0.003387  0.0025    1.0788   
    41. A(Cl  2,Zr  0,C  16)           87.73 -0.043312    5.03     92.75   
    42. A(Cl  1,Zr  0,C   6)          112.89  0.001061   -0.35    112.54   
    43. A(C   6,Zr  0,C  16)          132.58  0.016114   -1.23    131.35   
    44. A(Cl  1,Zr  0,Cl  2)           90.00  0.017170   -1.89     88.11   
    45. A(N   3,Zr  0,C   6)           67.35 -0.001069    0.40     67.75   
    46. A(Cl  2,Zr  0,N   3)           91.66 -0.019697    2.22     93.88   
    47. A(Cl  2,Zr  0,C   6)          119.20  0.017693   -2.27    116.93   
    48. A(N   3,Zr  0,C  16)           74.14  0.014128   -1.27     72.87   
    49. A(Cl  1,Zr  0,C  16)          104.64 -0.012734    1.04    105.68   
    50. A(C   4,N   3,C  14)          118.30  0.008460   -0.63    117.66   
    51. A(Zr  0,N   3,C   4)          125.14  0.002994   -0.58    124.56   
    52. A(Zr  0,N   3,C  14)          110.45 -0.010899    1.17    111.62   
    53. A(C   5,C   4,C  11)          121.14  0.004429   -0.30    120.85   
    54. A(N   3,C   4,C  11)          122.45 -0.004723    0.38    122.83   
    55. A(N   3,C   4,C   5)          115.97  0.000125   -0.07    115.90   
    56. A(C   6,C   5,H  22)          109.81  0.001731   -0.20    109.61   
    57. A(C   6,C   5,H  21)          109.29 -0.006345    0.62    109.91   
    58. A(H  21,C   5,H  22)          107.10  0.000901   -0.08    107.02   
    59. A(C   4,C   5,H  22)          108.35  0.002329   -0.33    108.02   
    60. A(C   4,C   5,H  21)          109.47 -0.001743    0.20    109.67   
    61. A(C   4,C   5,C   6)          112.67  0.003104   -0.22    112.45   
    62. A(C   5,C   6,C   7)          126.70 -0.004033    0.33    127.03   
    63. A(Zr  0,C   6,C   7)           86.63  0.009140   -1.15     85.48   
    64. A(Zr  0,C   6,C   5)          105.47 -0.011147    1.30    106.77   
    65. A(Zr  0,C   6,C  10)           83.31  0.017037   -2.11     81.20   
    66. A(C   5,C   6,C  10)          126.73  0.012282   -0.92    125.81   
    67. A(C   7,C   6,C  10)          105.90 -0.010499    0.88    106.78   
    68. A(C   6,C   7,C   8)          109.69  0.012678   -0.86    108.83   
    69. A(C   8,C   7,H  23)          123.79 -0.006096    0.42    124.21   
    70. A(C   6,C   7,H  23)          126.48 -0.006659    0.46    126.94   
    71. A(C   7,C   8,C   9)          109.40  0.006200   -0.40    109.00   
    72. A(C   7,C   8,H  24)          124.24 -0.001345    0.06    124.31   
    73. A(C   9,C   8,H  24)          126.31 -0.005023    0.35    126.66   
    74. A(C   8,C   9,H  25)          127.54  0.005816   -0.39    127.15   
    75. A(C  10,C   9,H  25)          126.12  0.009681   -0.72    125.40   
    76. A(C   8,C   9,C  10)          106.31 -0.015633    1.12    107.44   
    77. A(C   6,C  10,H  26)          126.06 -0.002660    0.28    126.34   
    78. A(C   6,C  10,C   9)          108.64  0.006851   -0.69    107.95   
    79. A(C   9,C  10,H  26)          125.30 -0.004187    0.41    125.71   
    80. A(C  12,C  11,H  27)          120.59  0.000416   -0.01    120.58   
    81. A(C   4,C  11,H  27)          120.85  0.002838   -0.21    120.64   
    82. A(C   4,C  11,C  12)          118.50 -0.003209    0.21    118.71   
    83. A(C  13,C  12,H  28)          120.21 -0.001756    0.15    120.36   
    84. A(C  11,C  12,H  28)          120.02 -0.001781    0.15    120.18   
    85. A(C  11,C  12,C  13)          119.59  0.003581   -0.31    119.28   
    86. A(C  14,C  13,H  29)          121.01  0.004339   -0.33    120.68   
    87. A(C  12,C  13,H  29)          120.31  0.001420   -0.10    120.22   
    88. A(C  12,C  13,C  14)          118.42 -0.006030    0.47    118.88   
    89. A(C  13,C  14,C  15)          121.61  0.001970   -0.31    121.29   
    90. A(N   3,C  14,C  15)          113.93 -0.003886    0.46    114.39   
    91. A(N   3,C  14,C  13)          122.39  0.002114   -0.15    122.23   
    92. A(C  14,C  15,H  30)          111.04  0.000060    0.09    111.12   
    93. A(H  30,C  15,H  31)          107.49  0.007006   -0.65    106.84   
    94. A(C  16,C  15,H  31)          109.63  0.000932   -0.03    109.60   
    95. A(C  14,C  15,C  16)          109.67  0.015980   -1.37    108.30   
    96. A(C  14,C  15,H  31)          108.56 -0.006202    0.37    108.93   
    97. A(C  16,C  15,H  30)          110.41 -0.017862    1.60    112.00   
    98. A(C  17,C  16,C  20)          108.07  0.005469   -0.46    107.60   
    99. A(C  15,C  16,C  20)          127.00 -0.005342    0.46    127.46   
   100. A(Zr  0,C  16,C  20)           85.36  0.014154   -1.53     83.83   
   101. A(C  15,C  16,C  17)          123.69  0.000636   -0.10    123.60   
   102. A(Zr  0,C  16,C  17)           90.62  0.017174   -2.09     88.53   
   103. A(Zr  0,C  16,C  15)           83.60 -0.023992    2.73     86.33   
   104. A(C  16,C  17,C  18)          106.50 -0.008028    0.62    107.12   
   105. A(C  18,C  17,H  32)          125.93  0.000670   -0.03    125.90   
   106. A(C  16,C  17,H  32)          127.57  0.007319   -0.59    126.98   
   107. A(C  17,C  18,C  19)          109.10  0.006193   -0.36    108.74   
   108. A(C  19,C  18,H  33)          124.15 -0.002167    0.11    124.26   
   109. A(C  17,C  18,H  33)          126.36 -0.004355    0.29    126.65   
   110. A(C  18,C  19,C  20)          109.76  0.006546   -0.43    109.33   
   111. A(C  20,C  19,H  34)          126.28 -0.003901    0.27    126.55   
   112. A(C  18,C  19,H  34)          123.81 -0.002905    0.19    123.99   
   113. A(C  16,C  20,C  19)          106.04 -0.011770    0.83    106.87   
   114. A(C  19,C  20,H  35)          127.37  0.003827   -0.24    127.13   
   115. A(C  16,C  20,H  35)          126.59  0.007946   -0.59    126.00   
   116. D(C  14,N   3,Zr  0,C  16)     26.32 -0.002486    0.01     26.34   
   117. D(C   4,N   3,Zr  0,C  16)   -125.47 -0.005539    0.21   -125.25   
   118. D(C   4,N   3,Zr  0,Cl  2)    147.37  0.033286   -4.33    143.04   
   119. D(C  14,N   3,Zr  0,Cl  2)    -60.84  0.036339   -4.53    -65.37   
   120. D(C   4,N   3,Zr  0,C   6)     26.26  0.004241   -0.69     25.57   
   121. D(C  14,N   3,Zr  0,C   6)    178.05  0.007293   -0.89    177.16   
   122. D(C  11,C   4,N   3,C  14)      6.63 -0.002334    0.41      7.04   
   123. D(C   5,C   4,N   3,Zr  0)    -16.07 -0.002952    0.51    -15.56   
   124. D(C  11,C   4,N   3,Zr  0)    156.43 -0.004038    0.65    157.08   
   125. D(C   5,C   4,N   3,C  14)   -165.87 -0.001248    0.28   -165.60   
   126. D(H  22,C   5,C   4,N   3)    104.25 -0.003495    0.51    104.76   
   127. D(H  21,C   5,C   4,N   3)   -139.28 -0.002068    0.34   -138.94   
   128. D(C   6,C   5,C   4,C  11)    169.94 -0.007505    0.94    170.89   
   129. D(H  21,C   5,C   4,C  11)     48.12 -0.000260    0.15     48.27   
   130. D(C   6,C   5,C   4,N   3)    -17.45 -0.009313    1.13    -16.32   
   131. D(C   7,C   6,Zr  0,Cl  2)     18.33  0.026582   -3.37     14.96   
   132. D(C   7,C   6,C   5,H  22)    175.62 -0.001843    0.23    175.86   
   133. D(Zr  0,C   6,C   5,C   4)     33.98  0.006020   -0.83     33.16   
   134. D(C   7,C   6,C   5,C   4)    -63.50  0.004417   -0.47    -63.98   
   135. D(Zr  0,C   6,C   5,H  21)    155.91  0.001378   -0.27    155.63   
   136. D(Zr  0,C   6,C   5,H  22)    -86.89 -0.000240   -0.12    -87.01   
   137. D(C   7,C   6,Zr  0,N   3)     96.95 -0.008568    0.93     97.88   
   138. D(C   7,C   6,Zr  0,Cl  1)    -85.32 -0.006194    0.58    -84.74   
   139. D(C   5,C   6,Zr  0,C  16)      7.96 -0.005094    0.90      8.86   
   140. D(C   5,C   6,Zr  0,N   3)    -30.27 -0.005597    0.75    -29.52   
   141. D(C   7,C   6,C   5,H  21)     58.42 -0.000225    0.08     58.50   
   142. D(C   5,C   6,Zr  0,Cl  2)   -108.90  0.029553   -3.54   -112.44   
   143. D(C   5,C   6,Zr  0,Cl  1)    147.46 -0.003222    0.41    147.87   
   144. D(C   8,C   7,C   6,C  10)     -2.34 -0.008480    1.02     -1.31   
   145. D(C   8,C   7,C   6,C   5)   -173.45  0.005333   -0.80   -174.25   
   146. D(C   8,C   7,C   6,Zr  0)     79.73  0.013061   -1.61     78.12   
   147. D(H  23,C   7,C   6,C   5)      4.52  0.002856   -0.42      4.10   
   148. D(H  23,C   7,C   6,Zr  0)   -102.30  0.010584   -1.23   -103.53   
   149. D(H  24,C   8,C   7,H  23)      1.29  0.004175   -0.56      0.73   
   150. D(H  24,C   8,C   7,C   6)    179.32  0.001750   -0.19    179.13   
   151. D(C   9,C   8,C   7,C   6)      1.83  0.005809   -0.67      1.16   
   152. D(C   9,C   8,C   7,H  23)   -176.21  0.008234   -1.04   -177.25   
   153. D(H  25,C   9,C   8,H  24)      0.25  0.000510   -0.06      0.19   
   154. D(H  25,C   9,C   8,C   7)    177.68 -0.003529    0.42    178.11   
   155. D(C  10,C   9,C   8,H  24)   -177.87  0.004809   -0.56   -178.43   
   156. D(C  10,C   9,C   8,C   7)     -0.44  0.000770   -0.07     -0.51   
   157. D(H  26,C  10,C   9,H  25)      1.45 -0.001750    0.21      1.66   
   158. D(H  26,C  10,C   9,C   8)    179.61 -0.006053    0.71    180.31   
   159. D(C   6,C  10,C   9,H  25)   -179.14 -0.001352    0.19   -178.95   
   160. D(C   6,C  10,C   9,C   8)     -0.98 -0.005655    0.69     -0.30   
   161. D(H  26,C  10,C   6,C   5)     -7.40 -0.006220    0.87     -6.53   
   162. D(H  26,C  10,C   6,Zr  0)     96.94 -0.006682    0.86     97.80   
   163. D(C   9,C  10,C   6,C   7)      2.08  0.009111   -1.08      1.00   
   164. D(C   9,C  10,C   6,Zr  0)    -82.47 -0.007074    0.88    -81.59   
   165. D(C   9,C  10,C   6,C   5)    173.19 -0.006611    0.89    174.08   
   166. D(H  27,C  11,C   4,C   5)     -7.39  0.000182   -0.06     -7.45   
   167. D(H  27,C  11,C   4,N   3)   -179.51  0.001686   -0.23   -179.73   
   168. D(C  12,C  11,C   4,C   5)    169.71  0.001197   -0.19    169.51   
   169. D(C  12,C  11,C   4,N   3)     -2.41  0.002701   -0.36     -2.77   
   170. D(H  28,C  12,C  11,H  27)     -0.34  0.000662   -0.10     -0.44   
   171. D(H  28,C  12,C  11,C   4)   -177.44 -0.000423    0.04   -177.41   
   172. D(C  13,C  12,C  11,H  27)    174.82  0.001169   -0.19    174.64   
   173. D(C  13,C  12,C  11,C   4)     -2.28  0.000084   -0.05     -2.33   
   174. D(H  29,C  13,C  12,H  28)      3.50  0.001174   -0.18      3.32   
   175. D(H  29,C  13,C  12,C  11)   -171.66  0.000666   -0.09   -171.74   
   176. D(C  14,C  13,C  12,H  28)    177.75 -0.001618    0.22    177.97   
   177. D(C  14,C  13,C  12,C  11)      2.59 -0.002126    0.31      2.90   
   178. D(C  13,C  14,N   3,Zr  0)   -160.24 -0.001835    0.11   -160.13   
   179. D(C  15,C  14,C  13,H  29)     13.33 -0.001099    0.14     13.47   
   180. D(C  15,C  14,C  13,C  12)   -160.88  0.001894   -0.28   -161.15   
   181. D(N   3,C  14,C  13,H  29)    175.95 -0.000938    0.19    176.15   
   182. D(N   3,C  14,C  13,C  12)      1.75  0.002055   -0.22      1.52   
   183. D(C  15,C  14,N   3,C   4)    157.56  0.000749   -0.17    157.39   
   184. D(C  15,C  14,N   3,Zr  0)      3.60 -0.000836    0.04      3.65   
   185. D(C  13,C  14,N   3,C   4)     -6.28 -0.000250   -0.10     -6.38   
   186. D(H  31,C  15,C  14,N   3)     58.55 -0.013257    1.87     60.42   
   187. D(H  30,C  15,C  14,C  13)    -19.51 -0.007451    1.31    -18.20   
   188. D(H  30,C  15,C  14,N   3)    176.51 -0.008478    1.35    177.85   
   189. D(C  16,C  15,C  14,C  13)    102.78 -0.019064    2.45    105.23   
   190. D(C  16,C  15,C  14,N   3)    -61.20 -0.020091    2.49    -58.71   
   191. D(C  17,C  16,C  15,H  31)   -137.23 -0.000808   -0.08   -137.31   
   192. D(C  17,C  16,C  15,C  14)    -18.13  0.001873   -0.48    -18.61   
   193. D(Zr  0,C  16,C  15,H  31)    -50.77  0.003710   -0.75    -51.52   
   194. D(Zr  0,C  16,C  15,H  30)   -169.01  0.005345   -0.90   -169.91   
   195. D(Zr  0,C  16,C  15,C  14)     68.32  0.006390   -1.15     67.18   
   196. D(C  17,C  16,Zr  0,N   3)     75.55 -0.000037    0.31     75.86   
   197. D(C  17,C  16,Zr  0,Cl  2)    167.93 -0.008882    1.25    169.17   
   198. D(C  17,C  16,Zr  0,Cl  1)   -102.67 -0.001912    0.56   -102.10   
   199. D(C  15,C  16,Zr  0,C   6)    -84.72  0.002842   -0.23    -84.95   
   200. D(C  15,C  16,Zr  0,N   3)    -48.30  0.000023    0.31    -48.00   
   201. D(C  17,C  16,C  15,H  30)    104.53  0.000828   -0.22    104.31   
   202. D(C  15,C  16,Zr  0,Cl  2)     44.07 -0.008822    1.25     45.32   
   203. D(C  15,C  16,Zr  0,Cl  1)    133.48 -0.001852    0.56    134.04   
   204. D(H  32,C  17,C  16,C  15)    -18.48 -0.006047    0.65    -17.83   
   205. D(H  32,C  17,C  16,Zr  0)   -101.19  0.011371   -1.25   -102.44   
   206. D(C  18,C  17,C  16,C  20)     -7.59 -0.011279    1.43     -6.16   
   207. D(C  18,C  17,C  16,C  15)    160.45 -0.008288    1.04    161.48   
   208. D(C  18,C  17,C  16,Zr  0)     77.73  0.009130   -0.86     76.88   
   209. D(H  33,C  18,C  17,H  32)     -2.08  0.001232   -0.11     -2.19   
   210. D(H  33,C  18,C  17,C  16)    178.98  0.003331   -0.48    178.49   
   211. D(C  19,C  18,C  17,H  32)   -175.12  0.004201   -0.46   -175.58   
   212. D(C  19,C  18,C  17,C  16)      5.94  0.006300   -0.83      5.10   
   213. D(H  34,C  19,C  18,H  33)      0.29 -0.000765    0.09      0.38   
   214. D(H  34,C  19,C  18,C  17)    173.52 -0.003858    0.45    173.96   
   215. D(C  20,C  19,C  18,H  33)   -175.39  0.002909   -0.35   -175.74   
   216. D(C  20,C  19,C  18,C  17)     -2.16 -0.000184    0.00     -2.16   
   217. D(H  35,C  20,C  19,H  34)      1.67 -0.002203    0.22      1.89   
   218. D(H  35,C  20,C  19,C  18)    177.21 -0.005919    0.67    177.89   
   219. D(C  16,C  20,C  19,H  34)   -178.20 -0.003462    0.45   -177.75   
   220. D(C  16,C  20,C  19,C  18)     -2.65 -0.007178    0.90     -1.75   
   221. D(H  35,C  20,C  16,C  15)     18.83  0.005431   -0.68     18.16   
   222. D(H  35,C  20,C  16,Zr  0)     97.23 -0.012753    1.49     98.72   
   223. D(C  19,C  20,C  16,C  17)      6.23  0.010775   -1.40      4.83   
   224. D(C  19,C  20,C  16,C  15)   -161.30  0.006670   -0.90   -162.20   
   225. D(C  19,C  20,C  16,Zr  0)    -82.91 -0.011514    1.26    -81.64   
    ----------------------------------------------------------------------------

Geometry step timings:
Preparation and reading OPT file:      0.002 s ( 4.465 %)
Internal coordinates            :      0.000 s ( 0.268 %)
B/P matrices and projection     :      0.016 s (34.358 %)
Hessian update/contruction      :      0.008 s (15.911 %)
Making the step                 :      0.017 s (34.933 %)
Converting the step to Cartesian:      0.001 s ( 2.075 %)
Storing new data                :      0.001 s ( 1.056 %)
Checking convergence            :      0.000 s ( 0.086 %)
Final printing                  :      0.003 s ( 6.799 %)
Total time                      :      0.047 s

Time for energy+gradient        :      0.212 s
Time for complete geometry iter :      0.268 s

         *************************************************************
         *                GEOMETRY OPTIMIZATION CYCLE   2            *
         *************************************************************
---------------------------------
CARTESIAN COORDINATES (ANGSTROEM)
---------------------------------
  Zr    0.007475    0.022143   -0.000890
  Cl   -0.007280    0.051573   -2.471530
  Cl    2.481567    0.211765   -0.097556
  N    -0.053263   -0.063705    2.224150
  C    -1.010351    0.507307    2.987006
  C    -1.873371    1.530785    2.301372
  C    -1.276769    2.013889    1.018826
  C    -0.100418    2.712074    0.862790
  C     0.032065    3.093156   -0.510206
  C    -1.064233    2.659316   -1.200043
  C    -1.913293    1.979293   -0.271536
  C    -1.299659    0.080660    4.274931
  C    -0.616845   -1.014584    4.783235
  C     0.295576   -1.679096    3.976917
  C     0.544551   -1.189132    2.698751
  C     1.170984   -2.051929    1.641277
  C     0.099075   -2.453408    0.662258
  C    -1.313431   -2.389284    0.952687
  C    -1.971011   -2.416325   -0.242938
  C    -1.012348   -2.617366   -1.292112
  C     0.242672   -2.666899   -0.754446
  H    -2.046813    2.379398    2.975781
  H    -2.850856    1.072693    2.103526
  H     0.611220    2.969592    1.637504
  H     0.858867    3.663505   -0.906365
  H    -1.278099    2.812528   -2.243935
  H    -2.860512    1.513778   -0.506445
  H    -2.076871    0.561110    4.852990
  H    -0.853356   -1.393711    5.769817
  H     0.736536   -2.609228    4.306569
  H     1.669863   -2.924121    2.085918
  H     1.937713   -1.478865    1.127478
  H    -1.773842   -2.320344    1.927271
  H    -3.041119   -2.406289   -0.390651
  H    -1.274546   -2.771351   -2.327764
  H     1.169568   -2.838633   -1.279105

----------------------------
CARTESIAN COORDINATES (A.U.)
----------------------------
  NO LB    ZA    FRAG    MASS        X           Y           Z
   0 Zr 40.0000    0    91.220    0.014126    0.041844   -0.001683
   1 Cl 17.0000    0    35.453   -0.013757    0.097459   -4.670514
   2 Cl 17.0000    0    35.453    4.689481    0.400179   -0.184354
   3 N   7.0000    0    14.007   -0.100653   -0.120384    4.203034
   4 C   6.0000    0    12.011   -1.909286    0.958671    5.644624
   5 C   6.0000    0    12.011   -3.540158    2.892765    4.348963
   6 C   6.0000    0    12.011   -2.412743    3.805700    1.925303
   7 C   6.0000    0    12.011   -0.189763    5.125078    1.630437
   8 C   6.0000    0    12.011    0.060594    5.845217   -0.964149
   9 C   6.0000    0    12.011   -2.011108    5.025380   -2.267752
  10 C   6.0000    0    12.011   -3.615600    3.740321   -0.513129
  11 C   6.0000    0    12.011   -2.456000    0.152425    8.078449
  12 C   6.0000    0    12.011   -1.165668   -1.917285    9.039004
  13 C   6.0000    0    12.011    0.558557   -3.173031    7.515284
  14 C   6.0000    0    12.011    1.029053   -2.247133    5.099901
  15 C   6.0000    0    12.011    2.212839   -3.877584    3.101564
  16 C   6.0000    0    12.011    0.187224   -4.636269    1.251485
  17 C   6.0000    0    12.011   -2.482025   -4.515092    1.800317
  18 C   6.0000    0    12.011   -3.724672   -4.566193   -0.459086
  19 C   6.0000    0    12.011   -1.913061   -4.946105   -2.441737
  20 C   6.0000    0    12.011    0.458583   -5.039709   -1.425696
  21 H   1.0000    0     1.008   -3.867916    4.496411    5.623411
  22 H   1.0000    0     1.008   -5.387338    2.027095    3.975089
  23 H   1.0000    0     1.008    1.155039    5.611715    3.094433
  24 H   1.0000    0     1.008    1.623023    6.923022   -1.712782
  25 H   1.0000    0     1.008   -2.415257    5.314909   -4.240423
  26 H   1.0000    0     1.008   -5.405583    2.860625   -0.957043
  27 H   1.0000    0     1.008   -3.924718    1.060344    9.170823
  28 H   1.0000    0     1.008   -1.612609   -2.633733   10.903375
  29 H   1.0000    0     1.008    1.391851   -4.930726    8.138237
  30 H   1.0000    0     1.008    3.155583   -5.525789    3.941814
  31 H   1.0000    0     1.008    3.661747   -2.794650    2.130625
  32 H   1.0000    0     1.008   -3.352076   -4.384815    3.642015
  33 H   1.0000    0     1.008   -5.746882   -4.547228   -0.738224
  34 H   1.0000    0     1.008   -2.408544   -5.237094   -4.398837
  35 H   1.0000    0     1.008    2.210163   -5.364240   -2.417157

      -----------------------------------------------------------      
     |                   =====================                   |     
     |                           x T B                           |     
     |                   =====================                   |     
     |                         S. Grimme                         |     
     |          Mulliken Center for Theoretical Chemistry        |     
     |                    University of Bonn                     |     
      -----------------------------------------------------------      

   * xtb version 6.7.1 (edcfbbe) compiled by 'albert@albert-system' on 2024-07-22

   xtb is free software: you can redistribute it and/or modify it under
   the terms of the GNU Lesser General Public License as published by
   the Free Software Foundation, either version 3 of the License, or
   (at your option) any later version.
   
   xtb is distributed in the hope that it will be useful,
   but WITHOUT ANY WARRANTY; without even the implied warranty of
   MERCHANTABILITY or FITNESS FOR A PARTICULAR PURPOSE.  See the
   GNU Lesser General Public License for more details.
   
   Cite this work as:
   * C. Bannwarth, E. Caldeweyher, S. Ehlert, A. Hansen, P. Pracht,
     J. Seibert, S. Spicher, S. Grimme, WIREs Comput. Mol. Sci., 2020, 11,
     e01493. DOI: 10.1002/wcms.1493
   
   for GFN2-xTB:
   * C. Bannwarth, S. Ehlert and S. Grimme., J. Chem. Theory Comput., 2019,
     15, 1652-1671. DOI: 10.1021/acs.jctc.8b01176
   for GFN1-xTB:
   * S. Grimme, C. Bannwarth, P. Shushkov, J. Chem. Theory Comput., 2017,
     13, 1989-2009. DOI: 10.1021/acs.jctc.7b00118
   for GFN0-xTB:
   * P. Pracht, E. Caldeweyher, S. Ehlert, S. Grimme, ChemRxiv, 2019, preprint.
     DOI: 10.26434/chemrxiv.8326202.v1
   for GFN-FF:
   * S. Spicher and S. Grimme, Angew. Chem. Int. Ed., 2020, 59, 15665-15673.
     DOI: 10.1002/anie.202004239
   
   for ALPB and GBSA implicit solvation:
   * S. Ehlert, M. Stahn, S. Spicher, S. Grimme, J. Chem. Theory Comput.,
     2021, 17, 4250-4261. DOI: 10.1021/acs.jctc.1c00471
   
   for ddCOSMO and CPCM-X implicit solvation:
   * M. Stahn, S. Ehlert, S. Grimme, J. Phys. Chem. A,
     2023, XX, XXXX-XXXX. DOI: 10.1021/acs.jpca.3c04382
   
   for DFT-D4:
   * E. Caldeweyher, C. Bannwarth and S. Grimme, J. Chem. Phys., 2017,
     147, 034112. DOI: 10.1063/1.4993215
   * E. Caldeweyher, S. Ehlert, A. Hansen, H. Neugebauer, S. Spicher,
     C. Bannwarth and S. Grimme, J. Chem. Phys., 2019, 150, 154122.
     DOI: 10.1063/1.5090222
   * E. Caldeweyher, J.-M. Mewes, S. Ehlert and S. Grimme, Phys. Chem. Chem. Phys.
     2020, 22, 8499-8512. DOI: 10.1039/D0CP00502A
   
   for sTDA-xTB:
   * S. Grimme and C. Bannwarth, J. Chem. Phys., 2016, 145, 054103.
     DOI: 10.1063/1.4959605
   
   in the mass-spec context:
   * V. Asgeirsson, C. Bauer and S. Grimme, Chem. Sci., 2017, 8, 4879.
     DOI: 10.1039/c7sc00601b
   * J. Koopman and S. Grimme, ACS Omega 2019, 4, 12, 15120-15133.
     DOI: 10.1021/acsomega.9b02011
   
   for metadynamics refer to:
[...]
  C    -1.042172    2.308521   -1.069027
  C    -2.095817    1.389670   -0.925247
  C    -2.255687    1.116737    0.453068
  C    -0.704801    0.359013    4.586526
  C    -0.324844   -0.879368    5.071842
  C    -0.008538   -1.876433    4.166213
  C    -0.096355   -1.606184    2.805580
  C     0.292126   -2.654125    1.794204
  C    -0.081865   -2.245435    0.399154
  C    -1.392452   -1.927941   -0.035020
  C    -1.328104   -1.609726   -1.410056
  C     0.009129   -1.728151   -1.824126
  C     0.790576   -2.095329   -0.705372
  H    -0.337107    2.608945    2.924375
  H    -2.056367    2.252503    3.130668
  H     0.259936    3.310885    0.437278
  H    -0.729388    2.774729   -1.993370
  H    -2.762039    1.071444   -1.715998
  H    -3.068212    0.559265    0.902886
  H    -0.941351    1.170734    5.256509
  H    -0.265259   -1.060661    6.134351
  H     0.311587   -2.850580    4.501258
  H    -0.183128   -3.604573    2.063731
  H     1.377235   -2.796706    1.857646
  H    -2.295538   -2.059305    0.548309
  H    -2.176086   -1.450897   -2.062423
  H     0.370764   -1.626783   -2.838355
  H     1.850788   -2.326936   -0.717857

----------------------------
CARTESIAN COORDINATES (A.U.)
----------------------------
  NO LB    ZA    FRAG    MASS        X           Y           Z
   0 Zr 40.0000    0    91.220    0.000154    0.314865   -0.122880
   1 Cl 17.0000    0    35.453    2.709833    1.659707   -3.456848
   2 Cl 17.0000    0    35.453    3.667274    0.899440    2.377370
   3 N   7.0000    0    14.007   -0.930570   -0.790233    4.420547
   4 C   6.0000    0    12.011   -1.454006    1.047654    6.068907
   5 C   6.0000    0    12.011   -2.140403    3.602542    5.011797
   6 C   6.0000    0    12.011   -2.435994    3.541435    2.191851
   7 C   6.0000    0    12.011   -0.980197    4.893391    0.401118
   8 C   6.0000    0    12.011   -1.969420    4.362472   -2.020168
   9 C   6.0000    0    12.011   -3.960520    2.626097   -1.748464
  10 C   6.0000    0    12.011   -4.262632    2.110328    0.856175
  11 C   6.0000    0    12.011   -1.331880    0.678436    8.667278
  12 C   6.0000    0    12.011   -0.613866   -1.661764    9.584393
  13 C   6.0000    0    12.011   -0.016134   -3.545945    7.873001
  14 C   6.0000    0    12.011   -0.182084   -3.035248    5.301777
  15 C   6.0000    0    12.011    0.552037   -5.015569    3.390554
  16 C   6.0000    0    12.011   -0.154702   -4.243258    0.754292
  17 C   6.0000    0    12.011   -2.631353   -3.643280   -0.066177
  18 C   6.0000    0    12.011   -2.509753   -3.041942   -2.664619
  19 C   6.0000    0    12.011    0.017251   -3.265732   -3.447099
  20 C   6.0000    0    12.011    1.493971   -3.959598   -1.332959
  21 H   1.0000    0     1.008   -0.637040    4.930192    5.526267
  22 H   1.0000    0     1.008   -3.885971    4.256613    5.916105
  23 H   1.0000    0     1.008    0.491209    6.256666    0.826336
  24 H   1.0000    0     1.008   -1.378344    5.243478   -3.766924
  25 H   1.0000    0     1.008   -5.219498    2.024735   -3.242766
  26 H   1.0000    0     1.008   -5.798081    1.056858    1.706207
  27 H   1.0000    0     1.008   -1.778896    2.212367    9.933363
  28 H   1.0000    0     1.008   -0.501267   -2.004359   11.592243
  29 H   1.0000    0     1.008    0.588814   -5.386816    8.506145
  30 H   1.0000    0     1.008   -0.346063   -6.811656    3.899886
  31 H   1.0000    0     1.008    2.602598   -5.285009    3.510443
  32 H   1.0000    0     1.008   -4.337939   -3.891523    1.036154
  33 H   1.0000    0     1.008   -4.112207   -2.741799   -3.897414
  34 H   1.0000    0     1.008    0.700642   -3.074174   -5.363713
  35 H   1.0000    0     1.008    3.497483   -4.397272   -1.356554

      -----------------------------------------------------------      
     |                   =====================                   |     
     |                           x T B                           |     
     |                   =====================                   |     
     |                         S. Grimme                         |     
     |          Mulliken Center for Theoretical Chemistry        |     
     |                    University of Bonn                     |     
      -----------------------------------------------------------      

   * xtb version 6.7.1 (edcfbbe) compiled by 'albert@albert-system' on 2024-07-22

   xtb is free software: you can redistribute it and/or modify it under
   the terms of the GNU Lesser General Public License as published by
   the Free Software Foundation, either version 3 of the License, or
   (at your option) any later version.
   
   xtb is distributed in the hope that it will be useful,
   but WITHOUT ANY WARRANTY; without even the implied warranty of
   MERCHANTABILITY or FITNESS FOR A PARTICULAR PURPOSE.  See the
   GNU Lesser General Public License for more details.
   
   Cite this work as:
   * C. Bannwarth, E. Caldeweyher, S. Ehlert, A. Hansen, P. Pracht,
     J. Seibert, S. Spicher, S. Grimme, WIREs Comput. Mol. Sci., 2020, 11,
     e01493. DOI: 10.1002/wcms.1493
   
   for GFN2-xTB:
   * C. Bannwarth, S. Ehlert and S. Grimme., J. Chem. Theory Comput., 2019,
     15, 1652-1671. DOI: 10.1021/acs.jctc.8b01176
   for GFN1-xTB:
   * S. Grimme, C. Bannwarth, P. Shushkov, J. Chem. Theory Comput., 2017,
     13, 1989-2009. DOI: 10.1021/acs.jctc.7b00118
   for GFN0-xTB:
   * P. Pracht, E. Caldeweyher, S. Ehlert, S. Grimme, ChemRxiv, 2019, preprint.
     DOI: 10.26434/chemrxiv.8326202.v1
   for GFN-FF:
   * S. Spicher and S. Grimme, Angew. Chem. Int. Ed., 2020, 59, 15665-15673.
     DOI: 10.1002/anie.202004239
   
   for ALPB and GBSA implicit solvation:
   * S. Ehlert, M. Stahn, S. Spicher, S. Grimme, J. Chem. Theory Comput.,
     2021, 17, 4250-4261. DOI: 10.1021/acs.jctc.1c00471
   
   for ddCOSMO and CPCM-X implicit solvation:
   * M. Stahn, S. Ehlert, S. Grimme, J. Phys. Chem. A,
     2023, XX, XXXX-XXXX. DOI: 10.1021/acs.jpca.3c04382
   
   for DFT-D4:
   * E. Caldeweyher, C. Bannwarth and S. Grimme, J. Chem. Phys., 2017,
     147, 034112. DOI: 10.1063/1.4993215
   * E. Caldeweyher, S. Ehlert, A. Hansen, H. Neugebauer, S. Spicher,
     C. Bannwarth and S. Grimme, J. Chem. Phys., 2019, 150, 154122.
     DOI: 10.1063/1.5090222
   * E. Caldeweyher, J.-M. Mewes, S. Ehlert and S. Grimme, Phys. Chem. Chem. Phys.
     2020, 22, 8499-8512. DOI: 10.1039/D0CP00502A
   
   for sTDA-xTB:
   * S. Grimme and C. Bannwarth, J. Chem. Phys., 2016, 145, 054103.
     DOI: 10.1063/1.4959605
   
   in the mass-spec context:
   * V. Asgeirsson, C. Bauer and S. Grimme, Chem. Sci., 2017, 8, 4879.
     DOI: 10.1039/c7sc00601b
   * J. Koopman and S. Grimme, ACS Omega 2019, 4, 12, 15120-15133.
     DOI: 10.1021/acsomega.9b02011
   
   for metadynamics refer to:
   * S. Grimme, J. Chem. Theory Comput., 2019, 155, 2847-2862
     DOI: 10.1021/acs.jctc.9b00143
   
   for SPH calculations refer to:
   * S. Spicher and S. Grimme, J. Chem. Theory Comput., 2021, 17, 1701-1714
     DOI: 10.1021/acs.jctc.0c01306
   
   for ONIOM refer to:
   * C. Plett, A. Katbashev, S. Ehlert, S. Grimme, M. Bursch,
     Phys. Chem. Chem. Phys., 2023, 25, 17860-17868. DOI: 10.1039/D3CP02178E
   
   for DIPRO refer to:
   * J. Kohn, N. Gildemeister, S. Grimme, D. Fazzi, A. Hansen,
     J. Chem. Phys., 2023, just accepted.
   
   for PTB refer to:
   * S. Grimme, M. Mueller, A. Hansen, J. Chem. Phys., 2023, 158, 124111.
     DOI: 10.1063/5.0137838
   
   with help from (in alphabetical order)
   P. Atkinson, C. Bannwarth, F. Bohle, G. Brandenburg, E. Caldeweyher
   M. Checinski, S. Dohm, S. Ehlert, S. Ehrlich, I. Gerasimov, C. Hölzer
   A. Katbashev, J. Kohn, J. Koopman, C. Lavigne, S. Lehtola, F. März, M. Müller,
   F. Musil, H. Neugebauer, J. Pisarek, C. Plett, P. Pracht, F. Pultar,
   J. Seibert, P. Shushkov, S. Spicher, M. Stahn, M. Steiner, T. Strunk,
   J. Stückrath, T. Rose, and J. Unsleber
   
 * started run on 2025/11/20 at 22:30:34.850     
   ID    Z sym.   atoms
    1   40 Zr     1
    2   17 Cl     2, 3
    3    7 N      4
    4    6 C      5-21
    5    1 H      22-36

           -------------------------------------------------
          |                Calculation Setup                |
           -------------------------------------------------

          program call               : otool_xtb final_relax_0_XTB.xyz --grad -c 0 -u 0 -P 1 --namespace final_relax_0 --input final_relax_0_XTB.input.tmp --acc 0.200000
          hostname                   : saraswati
          calculation namespace      : final_relax_0
          coordinate file            : final_relax_0_XTB.xyz
          omp threads                :                     1


           -------------------------------------------------
          |                 G F N 2 - x T B                 |
           -------------------------------------------------

        Reference                      10.1021/acs.jctc.8b01176
      * Hamiltonian:
        H0-scaling (s, p, d)           1.850000    2.230000    2.230000
        zeta-weighting                 0.500000
      * Dispersion:
        s8                             2.700000
        a1                             0.520000
        a2                             5.000000
        s9                             5.000000
      * Repulsion:
        kExp                           1.500000    1.000000
        rExp                           1.000000
      * Coulomb:
        alpha                          2.000000
        third order                    shell-resolved
        anisotropic                    true
        a3                             3.000000
        a5                             4.000000
        cn-shift                       1.200000
        cn-exp                         4.000000
        max-rad                        5.000000

q/qsh data taken from xtbrestart
CAMM data taken from xtbrestart

          ...................................................
          :                      SETUP                      :
          :.................................................:
          :  # basis functions                 117          :
          :  # atomic orbitals                 114          :
          :  # shells                           60          :
          :  # electrons                       106          :
          :  max. iterations                   250          :
          :  Hamiltonian                  GFN2-xTB          :
          :  restarted?                       true          :
          :  GBSA solvation                  false          :
          :  PC potential                    false          :
          :  electronic temp.          300.0000000     K    :
          :  accuracy                    0.2000000          :
          :  -> integral cutoff          0.3198970E+02      :
          :  -> integral neglect         0.2000000E-08      :
          :  -> SCF convergence          0.2000000E-06 Eh   :
          :  -> wf. convergence          0.2000000E-04 e    :
          :  Broyden damping             0.4000000          :
          :  net charge                          0          :
          :  unpaired electrons                  0          :
          ...................................................

 iter      E             dE          RMSdq      gap      omega  full diag
   1    -58.7490482 -0.587490E+02  0.115E-02    2.21       0.0  T
   2    -58.7490483 -0.669485E-07  0.675E-03    2.21       2.5  T
   3    -58.7490481  0.171391E-06  0.277E-03    2.21       6.0  T
   4    -58.7490483 -0.216480E-06  0.631E-04    2.21      26.4  T
   5    -58.7490483 -0.285070E-10  0.445E-04    2.21      37.5  T
   6    -58.7490483 -0.195919E-08  0.218E-04    2.21      76.6  T
   7    -58.7490483 -0.286121E-09  0.148E-04    2.21     112.4  T
   8    -58.7490483 -0.188130E-09  0.678E-05    2.21     245.7  T

   *** convergence criteria satisfied after 8 iterations ***

         #    Occupation            Energy/Eh            Energy/eV
      -------------------------------------------------------------
         1        2.0000           -1.0536861             -28.6723
       ...           ...                  ...                  ...
        47        2.0000           -0.3949945             -10.7483
        48        2.0000           -0.3913000             -10.6478
        49        2.0000           -0.3833661             -10.4319
        50        2.0000           -0.3780688             -10.2878
        51        2.0000           -0.3676476             -10.0042
        52        2.0000           -0.3652713              -9.9395
        53        2.0000           -0.3621863              -9.8556 (HOMO)
        54                         -0.2807973              -7.6409 (LUMO)
        55                         -0.2727720              -7.4225
        56                         -0.2706646              -7.3652
        57                         -0.2697028              -7.3390
        58                         -0.2602391              -7.0815
       ...                                ...                  ...
       114                          2.4713836              67.2498
      -------------------------------------------------------------
                  HL-Gap            0.0813889 Eh            2.2147 eV
             Fermi-level           -0.3214918 Eh           -8.7482 eV

 SCC (total)                   0 d,  0 h,  0 min,  0.085 sec
 SCC setup                      ...        0 min,  0.000 sec (  0.556%)
 Dispersion                     ...        0 min,  0.001 sec (  0.847%)
 classical contributions        ...        0 min,  0.000 sec (  0.150%)
 integral evaluation            ...        0 min,  0.019 sec ( 21.870%)
 iterations                     ...        0 min,  0.025 sec ( 29.079%)
 molecular gradient             ...        0 min,  0.040 sec ( 47.082%)
 printout                       ...        0 min,  0.000 sec (  0.381%)

         :::::::::::::::::::::::::::::::::::::::::::::::::::::
         ::                     SUMMARY                     ::
         :::::::::::::::::::::::::::::::::::::::::::::::::::::
         :: total energy             -57.917863232415 Eh    ::
         :: gradient norm              0.000211737406 Eh/a0 ::
         :: HOMO-LUMO gap              2.214705374674 eV    ::
         ::.................................................::
         :: SCC energy               -58.747854525075 Eh    ::
         :: -> isotropic ES            0.069742343582 Eh    ::
         :: -> anisotropic ES         -0.006132891760 Eh    ::
         :: -> anisotropic XC          0.025352195668 Eh    ::
         :: -> dispersion             -0.049839581725 Eh    ::
         :: repulsion energy           0.829991292660 Eh    ::
         :: add. restraining           0.000000000000 Eh    ::
         :: total charge               0.000000000000 e     ::
         :::::::::::::::::::::::::::::::::::::::::::::::::::::


Property printout bound to 'properties.out'

           -------------------------------------------------
          | TOTAL ENERGY              -57.917863232415 Eh   |
          | GRADIENT NORM               0.000211737406 Eh/α |
          | HOMO-LUMO GAP               2.214705374674 eV   |
           -------------------------------------------------

------------------------------------------------------------------------
 * finished run on 2025/11/20 at 22:30:34.968     
------------------------------------------------------------------------
 total:
 * wall-time:     0 d,  0 h,  0 min,  0.117 sec
 *  cpu-time:     0 d,  0 h,  0 min,  0.112 sec
 * ratio c/w:     0.957 speedup
 SCF:
 * wall-time:     0 d,  0 h,  0 min,  0.085 sec
 *  cpu-time:     0 d,  0 h,  0 min,  0.084 sec
 * ratio c/w:     0.989 speedup


-------------------------   --------------------
FINAL SINGLE POINT ENERGY       -57.917863232420
-------------------------   --------------------


-------------
DIPOLE MOMENT
-------------
                                X             Y             Z
Total Dipole Moment    :     -2.29900      -1.06700       2.37000
                        -----------------------------------------
Magnitude (a.u.)       :      3.46998
Magnitude (Debye)      :      8.82000

                                *** OPTIMIZATION RUN DONE ***


--------------------------------
SUGGESTED CITATIONS FOR THIS RUN
--------------------------------

Below you find a list of papers that are relevant to this ORCA run
We neither can nor want to force you to cite these papers, but we appreciate if you do
You receive ORCA, which is the product of decades of hard work by many enthusiastic individuals, for free
The only thing we kindly ask in return is that you cite our papers,
We deeply appreciate it, if you show your appreciation for ORCA by not just citing the generic ORCA reference.

Please note that relegating all ORCA citations to the supporting information does *not* help us.
SI sections are not indexed - citations you put there will not count into any citation statistics
But we need these citations in order to attract the funding resources that allow us to do what we are doing

Therefore, if you are a happy ORCA user, please consider citing a few of the papers listed below in the main body of your paper

In addition to the list printed below, the program has created the file final_relax_0.bibtex that contains the list in bibtex format
You can import this file easily into all common literature databanks and citation aid programs


List of essential papers. We consider these as the minimum necessary citations

  1. Bannwarth,C.; Ehlert,S.; Grimme,S.
     GFN2-xTB—An Accurate and Broadly Parametrized Self-Consistent Tight-Binding Quantum Chemical Method with Multipole Electrostatics and Density-Dependent Dispersion Contributions
     J. Chem. Theory Comput., 2019 15(3)1652-1671
     doi.org/10.1021/acs.jctc.8b01176
  2. Neese,F.
     Software update: the ORCA program system, version 5.0
     WIRES Comput. Molec. Sci., 2022 12(1)e1606
     doi.org/10.1002/wcms.1606

List of papers to cite with high priority. The work reported in these papers was absolutely
necessary for this run to complete.
Our perspective: the developers of density functionals and basis sets usually get cited in chemistry papers
Good! But without the algorithms to do something with them, the functionals or basis sets would not do anything.
Hence, in our opinion, the algorithm design and method developments papers are equally worthy of getting cited

  1. Bannwarth,C.; Caldeweyher,E.; Ehlert,S.; Hansen,A.; Pracht,P.; Seibert,J.; Spicher,S.; Grimme,S.
     Extended tight-binding quantum chemistry methods
     WIRES Comput. Molec. Sci., 2020 11(2)e1493
     doi.org/10.1002/wcms.1493

List of suggested additional citations. These are papers that are important in the 'surrounding' of 
of this run, or papers that preceded the highly important papers. If you like your results we are grateful for a citation.

  1. Neese,F.
     The ORCA program system
     WIRES Comput. Molec. Sci., 2012 2(1)73-78
     doi.org/10.1002/wcms.81
  2. Neese,F.
     Software update: the ORCA program system, version 4.0
     WIRES Comput. Molec. Sci., 2018 8(1)1-6
     doi.org/10.1002/wcms.1327
  3. Neese,F.; Wennmohs,F.; Becker,U.; Riplinger,C.
     The ORCA quantum chemistry program package
     J. Chem. Phys., 2020 152 Art. No. L224108
     doi.org/10.1063/5.0004608

List of optional additional citations

  1. Neese,F.
     Approximate second-order SCF convergence for spin unrestricted wavefunctions
     Chem. Phys. Lett., 2000 325(1-3)93-98
     doi.org/10.1016/s0009-2614(00)00662-x

Timings for individual modules:

Sum of individual times          ...        7.882 sec (=   0.131 min)
Geometry relaxation              ...        1.817 sec (=   0.030 min)  23.1 %
XTB module                       ...        6.065 sec (=   0.101 min)  76.9 %
                             ****ORCA TERMINATED NORMALLY****
TOTAL RUN TIME: 0 days 0 hours 0 minutes 8 seconds 600 msec
