
                                 *****************
                                 * O   R   C   A *
                                 *****************

                                            #,                                       
                                            ###                                      
                                            ####                                     
                                            #####                                    
                                            ######                                   
                                           ########,                                 
                                     ,,################,,,,,                         
                               ,,#################################,,                 
                          ,,##########################################,,             
                       ,#########################################, ''#####,          
                    ,#############################################,,   '####,        
                  ,##################################################,,,,####,       
                ,###########''''           ''''###############################       
              ,#####''   ,,,,##########,,,,          '''####'''          '####       
            ,##' ,,,,###########################,,,                        '##       
           ' ,,###''''                  '''############,,,                           
         ,,##''                                '''############,,,,        ,,,,,,###''
      ,#''                                            '''#######################'''  
     '                                                          ''''####''''         
             ,#######,   #######,   ,#######,      ##                                
            ,#'     '#,  ##    ##  ,#'     '#,    #''#        ,####,   ,####,        
            ##       ##  ##   ,#'  ##            #'  '#       #'       #'  '#        
            ##       ##  #######   ##           ,######,      #####,   #    #        
            '#,     ,#'  ##    ##  '#,     ,#' ,#      #,     #,   #   #,  ,#        
             '#######'   ##     ##  '#######'  #'      '#     '####' # '####'        



                #########################################################
                #                        -***-                          #
                #          Department of theory and spectroscopy        #
                #                                                       #
                #                      Frank Neese                      #
                #                                                       #
                #     Directorship, Architecture, Infrastructure        #
                #                    SHARK, DRIVERS                     #
                #        Core code/Algorithms in most modules           #
                #                                                       #
                #        Max Planck Institute fuer Kohlenforschung      #
                #                Kaiser Wilhelm Platz 1                 #
                #                 D-45470 Muelheim/Ruhr                 #
                #                      Germany                          #
                #                                                       #
                #                  All rights reserved                  #
                #                        -***-                          #
                #########################################################


                         Program Version 6.0.1  -  RELEASE   -


 With contributions from (in alphabetic order):
[Max-Planck-Institut fuer Kohlenforschung]                               
  Daniel Aravena         : Magnetic Suceptibility                        
  Michael Atanasov       : Ab Initio Ligand Field Theory (pilot matlab implementation)
  Alexander A. Auer      : GIAO ZORA, VPT2 properties, NMR spectrum      
  Ute Becker             : All parallelization in ORCA, NUMFREQ, NUMCALC 
  Giovanni Bistoni       : ED, misc. LED, open-shell LED, HFLD           
  Martin Brehm           : Molecular dynamics                            
  Dmytro Bykov           : pre 5.0 version of the SCF Hessian            
  Marcos Casanova-Páez   : Triplet and SCS-CIS(D). UHF-(DLPNO)-IP/EA/STEOM-CCSD. UHF-CVS-IP/STEOM-CCSD   
  Vijay G. Chilkuri      : MRCI spin determinant printing, contributions to CSF-ICE 
  Pauline Colinet        : FMM embedding                                 
  Dipayan Datta          : RHF DLPNO-CCSD density                        
  Achintya Kumar Dutta   : EOM-CC, STEOM-CC                              
  Nicolas Foglia         : Exact transition moments, OPA infrastructure, MCD improvements    
  Dmitry Ganyushin       : Spin-Orbit,Spin-Spin,Magnetic field MRCI      
  Miquel Garcia-Rates    : C-PCM and meta-GGA Hessian, CCSD/C-PCM, Gaussian charge scheme 
  Tiago L. C. Gouveia    : GS-ROHF, GS-ROCIS                             
  Yang Guo               : DLPNO-NEVPT2, F12-NEVPT2, CIM, IAO-localization        
  Andreas Hansen         : Spin unrestricted coupled pair/coupled cluster methods 
  Ingolf Harden          : AUTO-CI MPn and infrastructure                
  Benjamin Helmich-Paris : MC-RPA, TRAH-(SCF,CASSCF), AVAS, COSX integrals, SCF dyn. polar. 
  Lee Huntington         : MR-EOM, pCC                                   
  Robert Izsak           : Overlap fitted RIJCOSX, COSX-SCS-MP3, EOM     
  Riya Kayal             : Wick's Theorem for AUTO-CI, AUTO-CI UHF-CCSDT 
  Emily Kempfer          : AUTO-CI, RHF CISDT and CCSDT                  
  Christian Kollmar      : KDIIS, OOCD, Brueckner-CCSD(T), CCSD density, CASPT2, CASPT2-K, improved NEVPT2 
  Axel Koslowski         : Symmetry handling                             
  Simone Kossmann        : meta-GGA functionals, TD-DFT gradient, OOMP2, (MP2 Hessian; deprecated post 5.0) 
  Lucas Lang             : DCDCAS                                        
  Marvin Lechner         : AUTO-CI (C++ implementation), FIC-MRCC        
  Spencer Leger          : CASSCF response                               
  Dagmar Lenk            : GEPOL surface, SMD, ORCA-2-JSON               
  Dimitrios Liakos       : Extrapolation schemes; Compound Job, initial MDCI parallelization 
  Dimitrios Manganas     : Further ROCIS development; embedding schemes. LFT, Crystal Embedding 
  Dimitrios Pantazis     : SARC Basis sets                               
  Anastasios Papadopoulos: AUTO-CI, single reference methods and gradients 
  Taras Petrenko         : pre 6.0 DFT Hessian and TD-DFT gradient, (ASA, deprecated), ECA, 1-Electron XAS/XES, NRVS 
  Peter Pinski           : DLPNO-MP2, DLPNO-MP2 Gradient                 
  Christoph Reimann      : Effective Core Potentials                     
  Marius Retegan         : Local ZFS, SOC                                
  Christoph Riplinger    : Optimizer, TS searches, QM/MM, DLPNO-CCSD(T), (RO)-DLPNO pert. Triples 
  Michael Roemelt        : Original ROCIS implementation                 
  Masaaki Saitow         : Open-shell DLPNO-CCSD energy and density      
  Barbara Sandhoefer     : DKH picture change effects                    
  Kantharuban Sivalingam : CASSCF convergence/infrastructure, NEVPT2 and variants, FIC-MRCI 
  Bernardo de Souza      : ESD, SOC TD-DFT                               
  Georgi L. Stoychev     : AutoAux, RI-MP2 NMR, DLPNO-MP2 response, X2C  
  Van Anh Tran           : RI-MP2 g-tensors                              
  Willem Van den Heuvel  : Paramagnetic NMR                              
  Zikuan Wang            : NOTCH, Electric field optimization            
  Frank Wennmohs         : Technical directorship and infrastructure     
  Hang Xu                : AUTO-CI-Response properties                   
                                                                         
[FACCTs GmbH]                                                            
  Markus Bursch, Miquel Garcia-Rates, Christoph Riplinger, Bernardo de Souza, Georgi L. Stoychev 
                                                                 
  APM, Basis sets (HGBS, AHGBS, def-TZVP (Ac-Lr), def2-XVPD (La-Lu)), CI-OPT, improved COSX, DLPNO-Multilevel,           
  DOCKER, DRACO, updates on ESD, GOAT, IRC, LR-CPCM, MBIS, meta-GGA TD-DFT gradient, ML-optimized integration grids, 
  MM, NACMEs, nearIR, NEB, NEB-TS, NL-DFT gradient (VV10), 2- and 3-layer-ONIOM, interface openCOSMO-RS, QMMM,   
  Crystal-QMMM, SF, symmetry and pop. for TD-DFT, r2SCAN hybrids, SOLVATOR                                   
                                                                         
[Other institutions]                                                     
  V. Asgeirsson          : NEB                                           
  Christoph Bannwarth    : sTDA-DFT, sTD-DFT, PBEh-3c, B97-3c, D3        
  Sebastian Ehlert       : rSCAN, r2SCAN, r2SCAN-3c, D4, dhf basis sets  
  Marvin Friede          : D4 for Fr, Ra, Ac-Lr                          
  Lars Goerigk           : TD-DFT with DH, B97 family of functionals     
  Stefan Grimme          : VdW corrections, initial TS optimization, DFT functionals, gCP, sTDA/sTD-DF 
  Waldemar Hujo          : DFT-NL                                        
  H. Jonsson             : NEB                                           
  Holger Kruse           : gCP                                           
  Marcel Mueller         : wB97X-3c, vDZP basis set                      
  Hagen Neugebauer       : wr2SCAN                                       
  Tobias Risthaus        : range-separated hybrid DFT                    
  Lukas Wittmann         : regularized MP2, r2SCAN double-hybrids, wr2SCAN        
                                                                         
We gratefully acknowledge several colleagues who have allowed us to      
interface, adapt or use parts of their codes:                            
  Ed Valeev, F. Pavosevic, A. Kumar             : LibInt (2-el integral package), F12 methods 
  Garnet Chan, S. Sharma, J. Yang, R. Olivares  : DMRG                   
  Ulf Ekstrom                                   : XCFun DFT Library      
  Mihaly Kallay                                 : mrcc  (arbitrary order and MRCC methods)
  Frank Weinhold                                : gennbo (NPA and NBO analysis)           
  Simon Mueller                                 : openCOSMO-RS                            
  Christopher J. Cramer and Donald G. Truhlar   : smd solvation model                     
  S Lehtola, MJT Oliveira, MAL Marques          : LibXC Library                           
  Liviu Ungur et al                             : ANISO software                          


 Your calculation uses the libint2 library for the computation of 2-el integrals
 For citations please refer to: http://libint.valeyev.net

 Your ORCA version has been built with support for libXC version: 6.2.2
 For citations please refer to: https://libxc.gitlab.io

 This ORCA versions uses:
   CBLAS   interface :  Fast vector & matrix operations
   LAPACKE interface :  Fast linear algebra routines
   SCALAPACK package :  Parallel linear algebra routines
   Shared memory     :  Shared parallel matrices
   BLAS/LAPACK       :  OpenBLAS 0.3.27  USE64BITINT DYNAMIC_ARCH NO_AFFINITY Haswell SINGLE_THREADED
        Core in use  :  Haswell
   Copyright (c) 2011-2014, The OpenBLAS Project


Your calculation utilizes the semiempirical GFN2-xTB method
Please cite in your paper:
C. Bannwarth, Ehlert S., S. Grimme,  J. Chem. Theory Comput., 15, (2019), 1652.
   

================================================================================

cite the ECPs for Zr [Def2-ECP] as follows:
Ce-Yb(ecp-28): M. Dolg, H. Stoll, H.Preuss, J. Chem. Phys., 1989, 90, 1730-1734.
Y-Cd(ecp-28), Hf-Hg(ecp-46): D. Andrae,U. Haeussermann, M. Dolg, H. Stoll, H. Preuss, Theor. Chim. Acta, 1990, 77, 123-141.
In-Sb(ecp-28), Tl-Bi(ecp-46): B. Metz, H. Stoll, M. Dolg, J. Chem. Phys., 2000, 113, 2563-2569.
Te-Xe(ecp-28), Po-Rn(ecp-46): K. A. Peterson, D. Figgen, E. Goll, H. Stoll, M. Dolg, J. Chem. Phys., 2003, 119, 11113-11123.
Rb(ecp-28), Cs(ecp-46): T. Leininger, A. Nicklass, W. Kuechle, H. Stoll, M. Dolg, A. Bergner, Chem. Phys. Lett., 1996, 255, 274-280.
Sr(ecp-28), Ba(ecp-46): M. Kaupp, P. V. Schleyer, H. Stoll and H. Preuss, J. Chem. Phys., 1991, 94, 1360-1366.
La(ecp-46): M. Dolg, H. Stoll, A. Savin, H. Preuss, Theor. Chim. Acta, 1989, 75, 173-194.
Lu(ecp-28): X. Cao, M. Dolg, J. Chem. Phys., 2001, 115, 7348-7355.

ECP parameters for Zr [Def2-ECP] have been obtained from:
TURBOMOLE (7.0.2)

================================================================================
                                        WARNINGS
                       Please study these warnings very carefully!
================================================================================


WARNING: Geometry Optimization
  ===> : Switching off AutoStart
         For restart on a previous wavefunction, please use MOREAD

WARNING: Found dipole moment calculation with XTB calculation
  ===> : Switching off dipole moment calculation


================================================================================
                                       INPUT FILE
================================================================================
NAME = final_relax_1.com
|  1> ! XTB2 opt
|  2> 
|  3> *xyz 0 1
|  4> Zr 0.0 0.0 0.0
|  5> Cl 0.0 0.0 -1.939
|  6> Cl 1.939 0.0 0.0
|  7> N 0.647779 -0.001854 1.595514
|  8> C 0.903689 1.072795 2.437031
|  9> C 0.820926 2.414743 1.800507
| 10> C -0.20242 2.141206 0.775293
| 11> C -1.437294 1.639369 0.957568
| 12> C -2.04478 1.499104 -0.332357
| 13> C -1.167957 1.86466 -1.280693
| 14> C 0.05012 2.226805 -0.622838
| 15> C 1.262905 1.076699 3.779653
| 16> C 1.449383 -0.088842 4.484989
| 17> C 1.378164 -1.208126 3.676046
| 18> C 1.022604 -1.122011 2.344144
| 19> C 1.064415 -2.394857 1.574442
| 20> C -0.048356 -2.14315 0.63011
| 21> C -1.366955 -1.721091 1.053458
| 22> C -2.041888 -1.566733 -0.084875
| 23> C -1.16813 -1.876491 -1.205638
| 24> C 0.061906 -2.187678 -0.781885
| 25> H 1.781668 2.688988 1.343921
| 26> H 0.539137 3.193499 2.51187
| 27> H -1.954136 1.509097 1.909054
| 28> H -3.084006 1.22924 -0.489346
| 29> H -1.386581 2.026987 -2.326753
| 30> H 0.952699 2.606483 -1.095013
| 31> H 1.371561 2.040295 4.253723
| 32> H 1.664006 -0.125084 5.537291
| 33> H 1.593737 -2.19122 4.065414
| 34> H 0.922292 -3.266645 2.218677
| 35> H 2.021663 -2.509745 1.048534
| 36> H -1.707358 -1.667307 2.08251
| 37> H -3.097327 -1.3483 -0.207916
| 38> H -1.557476 -1.93277 -2.216848
| 39> H 0.926325 -2.51522 -1.348294
| 40> **                         ****END OF INPUT****
================================================================================

                       *****************************
                       * Geometry Optimization Run *
                       *****************************

Geometry optimization settings:
Update method            Update   .... BFGS
Choice of coordinates    CoordSys .... (2022) Redundant Internals
Initial Hessian          InHess   .... Almloef's Model
Max. no of cycles        MaxIter  .... 108

Convergence Tolerances:
Energy Change            TolE     ....  5.0000e-06 Eh
Max. Gradient            TolMAXG  ....  3.0000e-04 Eh/bohr
RMS Gradient             TolRMSG  ....  1.0000e-04 Eh/bohr
Max. Displacement        TolMAXD  ....  4.0000e-03 bohr
RMS Displacement         TolRMSD  ....  2.0000e-03 bohr
Strict Convergence                .... False

------------------------------------------------------------------------------
                        ORCA OPTIMIZATION COORDINATE SETUP
------------------------------------------------------------------------------

The optimization will be done in redundant internal coordinates (2022)
Making redundant internal coordinates   ...  (2022 redundants) done
Evaluating the initial hessian          ...  (Almloef) done
Evaluating the coordinates              ...  done
Calculating the B-matrix                .... done
Calculating the G-matrix                .... done
Diagonalizing the G-matrix              .... done
The first mode is                       ....  532
The number of degrees of freedom        ....  102

    -----------------------------------------------------------------
                    Redundant Internal Coordinates


    -----------------------------------------------------------------
         Definition                    Initial Value    Approx d2E/dq
    -----------------------------------------------------------------
      1. B(Cl  1,Zr  0)                  1.9390         1.887839   
      2. B(Cl  2,Zr  0)                  1.9390         1.887839   
      3. B(N   3,Zr  0)                  1.7220         1.672301   
      4. B(N   3,Cl  2)                  2.0525         0.110111   
      5. B(C   4,N   3)                  1.3887         0.562258   
      6. B(C   4,Zr  0)                  2.8119         0.034068   
      7. B(C   5,C   4)                  1.4876         0.436603   
      8. B(C   6,C   5)                  1.4742         0.458648   
      9. B(C   6,Zr  0)                  2.2862         0.234961   
     10. B(C   7,Zr  0)                  2.3812         0.165734   
     11. B(C   7,C   6)                  1.3454         0.736153   
     12. B(C   8,C   7)                  1.4327         0.534095   
     13. B(C   8,Zr  0)                  2.5571         0.086853   
     14. B(C   9,C   8)                  1.3423         0.744437   
     15. B(C   9,Zr  0)                  2.5458         0.090533   
     16. B(C  10,C   9)                  1.4310         0.537522   
     17. B(C  10,C   6)                  1.4233         0.552789   
     18. B(C  10,Zr  0)                  2.3128         0.213096   
     19. B(C  11,C   4)                  1.3899         0.625139   
     20. B(C  12,C  11)                  1.3750         0.660074   
     21. B(C  13,C  12)                  1.3828         0.641439   
     22. B(C  14,C  13)                  1.3812         0.645249   
     23. B(C  14,N   3)                  1.3985         0.542472   
     24. B(C  14,Zr  0)                  2.7928         0.036544   
     25. B(C  15,C  14)                  1.4881         0.435801   
     26. B(C  16,C  15)                  1.4810         0.447244   
     27. B(C  16,Zr  0)                  2.2344         0.284252   
     28. B(C  17,C  16)                  1.4478         0.505310   
     29. B(C  17,Zr  0)                  2.4373         0.134878   
     30. B(C  18,C  17)                  1.3324         0.772168   
     31. B(C  18,Zr  0)                  2.5751         0.081303   
     32. B(C  19,C  18)                  1.4545         0.493020   
     33. B(C  19,Zr  0)                  2.5178         0.100354   
     34. B(C  20,C  19)                  1.3377         0.757197   
     35. B(C  20,C  16)                  1.4170         0.565812   
     36. B(C  20,Zr  0)                  2.3240         0.204493   
     37. B(H  21,C   5)                  1.0985         0.349027   
     38. B(H  22,C   5)                  1.0917         0.357801   
     39. B(H  23,C   7)                  1.0906         0.359299   
     40. B(H  24,C   8)                  1.0851         0.366628   
     41. B(H  25,C   9)                  1.0809         0.372314   
     42. B(H  26,C  10)                  1.0871         0.363977   
     43. B(H  27,C  11)                  1.0794         0.374424   
     44. B(H  28,C  12)                  1.0746         0.381092   
     45. B(H  29,C  13)                  1.0791         0.374751   
     46. B(H  30,C  15)                  1.0933         0.355792   
     47. B(H  31,C  15)                  1.0982         0.349380   
     48. B(H  32,C  17)                  1.0852         0.366471   
     49. B(H  33,C  18)                  1.0848         0.367037   
     50. B(H  34,C  19)                  1.0850         0.366727   
     51. B(H  35,C  20)                  1.0841         0.367959   
     52. A(C   9,Zr  0,C  17)          118.5115         0.299839   
     53. A(Cl  1,Zr  0,C  18)           88.1112         0.478387   
     54. A(C   9,Zr  0,C  10)           33.8262         0.322834   
     55. A(C  10,Zr  0,C  17)          143.9432         0.344915   
     56. A(N   3,Zr  0,C  18)          109.1576         0.450669   
     57. A(Cl  2,Zr  0,C  18)          142.4606         0.478387   
     58. A(C   8,Zr  0,C  18)           73.6404         0.275257   
     59. A(C   7,Zr  0,C  16)          122.2677         0.375198   
     60. A(C  16,Zr  0,C  17)           35.7733         0.362159   
     61. A(C  14,Zr  0,C  17)           63.8243         0.260701   
     62. A(Cl  1,Zr  0,C  19)           61.3899         0.497390   
     63. A(Cl  2,Zr  0,C   4)           71.2534         0.408801   
     64. A(C   4,Zr  0,C   8)           98.3935         0.241972   
     65. A(Cl  2,Zr  0,C   6)           95.0796         0.584106   
     66. A(N   3,Zr  0,C  19)          128.1264         0.468319   
     67. A(C   4,Zr  0,C   6)           51.4809         0.280619   
     68. A(C  10,Zr  0,C  19)          126.7752         0.328349   
     69. A(C   4,Zr  0,C  16)           97.3822         0.289059   
     70. A(C   6,Zr  0,C  18)          120.7168         0.322313   
     71. A(C  14,Zr  0,C  18)           94.2192         0.242115   
     72. A(C   9,Zr  0,C  18)           93.7423         0.277015   
     73. A(C  18,Zr  0,C  19)           33.1638         0.281449   
     74. A(Cl  2,Zr  0,C  16)           91.2401         0.605914   
     75. A(C  14,Zr  0,C  19)          105.8059         0.249587   
     76. A(N   3,Zr  0,C  20)          107.4990         0.534632   
     77. A(Cl  2,Zr  0,C  19)          117.6422         0.497390   
     78. A(C   4,Zr  0,C  14)           46.2222         0.214752   
     79. A(C   9,Zr  0,C  20)          122.1704         0.320664   
     80. A(C  10,Zr  0,C  20)          144.6018         0.370192   
     81. A(Cl  2,Zr  0,C  20)           88.4736         0.568784   
     82. A(C  16,Zr  0,C  19)           53.8528         0.344477   
     83. A(Cl  1,Zr  0,C  17)          115.6086         0.525655   
     84. A(C   4,Zr  0,C  17)           94.3043         0.257997   
     85. A(N   3,Zr  0,C  17)           79.0323         0.494573   
     86. A(N   3,Zr  0,C   7)           81.6747         0.513931   
     87. A(Cl  1,Zr  0,C   9)           59.7977         0.487981   
     88. A(C   4,Zr  0,C  20)          129.9533         0.274689   
     89. A(C   4,Zr  0,C  18)          121.0326         0.239703   
     90. A(C  10,Zr  0,C  18)          126.4483         0.317211   
     91. A(C   7,Zr  0,C  19)          115.1899         0.315112   
     92. A(C   9,Zr  0,C  19)           95.2870         0.286191   
     93. A(C  16,Zr  0,C  18)           53.7409         0.332590   
     94. A(C  18,Zr  0,C  20)           55.7582         0.315093   
     95. A(C  17,Zr  0,C  20)           59.7112         0.342539   
     96. A(Cl  2,Zr  0,C   7)          127.1276         0.546497   
     97. A(N   3,Zr  0,C  14)           23.6693         0.390791   
     98. A(C   4,Zr  0,C   7)           65.3421         0.266063   
     99. A(C   8,Zr  0,C  16)          125.5671         0.336258   
    100. A(Cl  1,Zr  0,C  16)          106.3800         0.605914   
    101. A(C   6,Zr  0,C  10)           36.0505         0.379171   
    102. A(C   7,Zr  0,C  10)           57.2157         0.357130   
    103. A(C   8,Zr  0,C  10)           54.4004         0.320648   
    104. A(C   4,Zr  0,C  19)          148.0448         0.247057   
    105. A(C   8,Zr  0,C  20)          121.9665         0.318498   
    106. A(Cl  1,Zr  0,C   8)           82.5320         0.484251   
    107. A(Cl  1,Zr  0,C  20)           70.3402         0.568784   
    108. A(Cl  2,Zr  0,C   8)          143.0957         0.484251   
    109. A(Cl  1,Zr  0,C   6)          109.8230         0.584106   
    110. A(C   6,Zr  0,C  16)          143.2045         0.398725   
    111. A(N   3,Zr  0,C   8)          114.9523         0.456116   
    112. A(C   9,Zr  0,C  16)          146.5603         0.338591   
    113. A(C   7,Zr  0,C   9)           54.6292         0.309902   
    114. A(C   6,Zr  0,C   8)           54.8455         0.325827   
    115. A(Cl  1,Zr  0,Cl  2)           90.0000         0.915305   
    116. A(N   3,Zr  0,C   6)           73.7463         0.548863   
    117. A(C   7,Zr  0,C   8)           33.4889         0.307837   
    118. A(Cl  1,Zr  0,C  14)          147.0723         0.413920   
    119. A(Cl  2,Zr  0,C  14)           68.5210         0.413920   
    120. A(N   3,Zr  0,C   4)           22.5543         0.386037   
    121. A(Cl  1,Zr  0,N   3)          157.9028         0.856486   
    122. A(C   6,Zr  0,C  14)           97.1259         0.283685   
    123. A(C   7,Zr  0,C  14)           99.2108         0.268897   
    124. A(C   8,Zr  0,C  14)          129.5994         0.244420   
    125. A(C   9,Zr  0,C  14)          152.1883         0.245887   
    126. A(C  10,Zr  0,C  14)          127.2229         0.279429   
    127. A(Cl  2,Zr  0,C   9)          117.3079         0.487981   
    128. A(C   6,Zr  0,C  19)          145.0170         0.333699   
    129. A(C   7,Zr  0,C  18)           87.3354         0.304590   
    130. A(C  17,Zr  0,C  18)           30.6727         0.294769   
    131. A(Cl  2,Zr  0,N   3)           67.9029         0.856486   
    132. A(C   7,Zr  0,C  20)          143.0758         0.354641   
    133. A(C   8,Zr  0,C  19)           90.2117         0.284347   
    134. A(C  17,Zr  0,C  19)           54.5834         0.304811   
    135. A(C  16,Zr  0,C  20)           36.1534         0.389140   
    136. A(Cl  2,Zr  0,C  17)          124.1143         0.525655   
    137. A(C   6,Zr  0,C   9)           56.2202         0.328062   
    138. A(C   4,Zr  0,C  10)           81.9001         0.276429   
    139. A(N   3,Zr  0,C   9)          129.7525         0.459580   
    140. A(C  19,Zr  0,C  20)           31.7550         0.326127   
    141. A(Cl  1,Zr  0,C   7)          113.7115         0.546497   
    142. A(C   8,Zr  0,C   9)           30.5006         0.279847   
    143. A(C   4,Zr  0,C   9)          107.6976         0.243416   
    144. A(C  14,Zr  0,C  20)           83.9413         0.277661   
    145. A(N   3,Zr  0,C  16)           75.2748         0.569118   
    146. A(Cl  1,Zr  0,C  10)           74.3774         0.573280   
    147. A(C  14,Zr  0,C  16)           52.1113         0.292261   
    148. A(Cl  2,Zr  0,C  10)           88.7583         0.573280   
    149. A(C   6,Zr  0,C   7)           33.4264         0.363124   
    150. A(Cl  1,Zr  0,C   4)          150.0764         0.408801   
    151. A(N   3,Zr  0,C  10)          104.0284         0.538807   
    152. A(C   6,Zr  0,C  17)          117.7181         0.350635   
    153. A(C   7,Zr  0,C  17)           88.4996         0.330761   
    154. A(C   8,Zr  0,C  17)           91.2420         0.297868   
    155. A(Zr  0,Cl  2,N   3)           51.0174         0.468195   
    156. A(Cl  2,N   3,C   4)          110.7577         0.326709   
    157. A(Zr  0,N   3,Cl  2)           61.0798         0.441202   
    158. A(C   4,N   3,C  14)          104.2447         0.411096   
    159. A(Zr  0,N   3,C   4)          129.0464         0.570120   
    160. A(Cl  2,N   3,C  14)          104.3733         0.324789   
    161. A(Zr  0,N   3,C  14)          126.7047         0.566235   
    162. A(Zr  0,C   4,C  11)          157.1280         0.296049   
    163. A(N   3,C   4,C   5)          115.3757         0.398195   
    164. A(Zr  0,C   4,C   5)           87.4461         0.279892   
    165. A(Zr  0,C   4,N   3)           28.3993         0.289476   
    166. A(C   5,C   4,C  11)          115.1635         0.408331   
    167. A(N   3,C   4,C  11)          129.4334         0.424364   
    168. A(C   6,C   5,H  22)          113.9747         0.335147   
    169. A(H  21,C   5,H  22)          108.5714         0.289127   
    170. A(C   4,C   5,H  22)          112.2742         0.332418   
    171. A(C   4,C   5,H  21)          110.7573         0.331054   
    172. A(C   6,C   5,H  21)          111.3705         0.333768   
    173. A(C   4,C   5,C   6)           99.7190         0.386714   
    174. A(C   7,C   6,C  10)          108.5648         0.438545   
    175. A(C   5,C   6,C  10)          123.2859         0.403046   
    176. A(Zr  0,C   6,C  10)           72.9926         0.400745   
    177. A(C   5,C   6,C   7)          127.7471         0.424082   
    178. A(Zr  0,C   6,C   7)           77.1652         0.421628   
    179. A(Zr  0,C   6,C   5)          110.3750         0.387847   
    180. A(Zr  0,C   7,C   6)           69.4084         0.396361   
    181. A(C   6,C   7,H  23)          126.7085         0.363230   
    182. A(Zr  0,C   7,H  23)          123.6861         0.314997   
    183. A(C   8,C   7,H  23)          124.9499         0.344020   
    184. A(C   6,C   7,C   8)          107.6819         0.435833   
    185. A(Zr  0,C   7,C   8)           80.0071         0.374831   
    186. A(C   7,C   8,C   9)          109.4178         0.436713   
    187. A(C   9,C   8,H  24)          126.2362         0.365185   
    188. A(C   7,C   8,H  24)          124.1037         0.345188   
    189. A(Zr  0,C   8,H  24)          129.7049         0.285142   
    190. A(Zr  0,C   8,C   7)           66.5040         0.335941   
    191. A(Zr  0,C   8,C   9)           74.2845         0.355215   
    192. A(C   8,C   9,C  10)          107.4676         0.437217   
    193. A(Zr  0,C   9,C  10)           64.1238         0.338632   
    194. A(C  10,C   9,H  25)          125.3849         0.346455   
    195. A(Zr  0,C   9,C   8)           75.2149         0.357728   
    196. A(C   8,C   9,H  25)          126.3340         0.366148   
    197. A(Zr  0,C   9,H  25)          133.5996         0.287684   
    198. A(C   6,C  10,C   9)          106.5791         0.414530   
    199. A(Zr  0,C  10,C   9)           82.0500         0.392002   
    200. A(Zr  0,C  10,C   6)           70.9569         0.393929   
    201. A(C   9,C  10,H  26)          126.5457         0.345139   
    202. A(C   6,C  10,H  26)          126.5111         0.346767   
    203. A(Zr  0,C  10,H  26)          118.1146         0.328929   
    204. A(C  12,C  11,H  27)          121.1825         0.359050   
    205. A(C   4,C  11,H  27)          116.9238         0.355747   
    206. A(C   4,C  11,C  12)          121.8834         0.439647   
    207. A(C  13,C  12,H  28)          123.7690         0.358380   
    208. A(C  11,C  12,H  28)          123.9172         0.360131   
    209. A(C  11,C  12,C  13)          112.2735         0.441696   
    210. A(C  14,C  13,H  29)          117.1387         0.357719   
    211. A(C  12,C  13,H  29)          121.0648         0.357359   
    212. A(C  12,C  13,C  14)          121.7953         0.439887   
    213. A(C  13,C  14,C  15)          115.9901         0.410494   
    214. A(N   3,C  14,C  15)          114.5685         0.395570   
    215. A(Zr  0,C  14,C  15)           85.3987         0.282867   
    216. A(N   3,C  14,C  13)          129.4304         0.424048   
    217. A(Zr  0,C  14,C  13)          158.2309         0.300875   
    218. A(Zr  0,C  14,N   3)           29.6260         0.291040   
    219. A(C  14,C  15,C  16)           99.4000         0.384899   
    220. A(H  30,C  15,H  31)          108.1843         0.288918   
    221. A(C  16,C  15,H  31)          111.5521         0.332432   
    222. A(C  14,C  15,H  31)          111.2028         0.331008   
    223. A(C  16,C  15,H  30)          114.4303         0.333436   
    224. A(C  14,C  15,H  30)          111.9395         0.332007   
    225. A(C  15,C  16,C  17)          123.1900         0.394978   
    226. A(Zr  0,C  16,C  17)           79.7790         0.407928   
    227. A(Zr  0,C  16,C  15)          109.0608         0.399237   
    228. A(C  17,C  16,C  20)          111.8028         0.411705   
    229. A(C  15,C  16,C  20)          124.8599         0.402911   
    230. A(Zr  0,C  16,C  20)           75.3713         0.416197   
    231. A(C  16,C  17,C  18)          104.2005         0.435234   
    232. A(Zr  0,C  17,C  18)           80.3877         0.385547   
    233. A(Zr  0,C  17,C  16)           64.4478         0.358410   
    234. A(C  18,C  17,H  32)          130.2043         0.367453   
    235. A(C  16,C  17,H  32)          125.2684         0.341972   
    236. A(Zr  0,C  17,H  32)          123.4200         0.305668   
    237. A(Zr  0,C  18,C  17)           68.9396         0.353446   
    238. A(C  19,C  18,H  33)          122.6807         0.340654   
    239. A(C  17,C  18,H  33)          127.8134         0.367551   
    240. A(Zr  0,C  18,H  33)          130.7454         0.282281   
    241. A(C  17,C  18,C  19)          109.2299         0.433310   
    242. A(Zr  0,C  18,C  19)           71.2540         0.327911   
    243. A(C  20,C  19,H  34)          127.8153         0.366266   
    244. A(C  18,C  19,H  34)          120.9048         0.340605   
    245. A(Zr  0,C  19,H  34)          130.6474         0.291675   
    246. A(C  18,C  19,C  20)          110.9674         0.431788   
    247. A(Zr  0,C  19,C  20)           66.1135         0.365125   
    248. A(Zr  0,C  19,C  18)           75.5821         0.339570   
    249. A(C  19,C  20,H  35)          129.6398         0.366477   
    250. A(C  16,C  20,H  35)          126.3100         0.348768   
    251. A(Zr  0,C  20,H  35)          118.7777         0.327287   
    252. A(C  16,C  20,C  19)          103.6979         0.442641   
    253. A(Zr  0,C  20,C  19)           82.1315         0.413397   
    254. A(Zr  0,C  20,C  16)           68.4753         0.392695   
    255. D(N   3,Cl  2,Zr  0,C   4)     23.8259         0.012148   
    256. D(N   3,Cl  2,Zr  0,C   7)     59.7771         0.012148   
    257. D(N   3,Cl  2,Zr  0,C  16)    -73.5495         0.012148   
    258. D(N   3,Cl  2,Zr  0,C  14)    -25.5113         0.012148   
    259. D(N   3,Cl  2,Zr  0,C   9)    124.5488         0.012148   
    260. D(N   3,Cl  2,Zr  0,C  19)   -122.6540         0.012148   
    261. D(N   3,Cl  2,Zr  0,Cl  1)   -179.9334         0.012148   
    262. D(N   3,Cl  2,Zr  0,C   8)    102.5671         0.012148   
    263. D(N   3,Cl  2,Zr  0,C  20)   -109.6005         0.012148   
    264. D(N   3,Cl  2,Zr  0,C  17)    -58.4631         0.012148   
    265. D(N   3,Cl  2,Zr  0,C  10)    105.6929         0.012148   
    266. D(N   3,Cl  2,Zr  0,C  18)    -93.0343         0.012148   
    267. D(N   3,Cl  2,Zr  0,C   6)     70.1621         0.012148   
    268. D(C   4,N   3,Zr  0,C   6)     -8.3865         0.025254   
    269. D(C   4,N   3,Zr  0,C   7)    -41.6731         0.025254   
    270. D(C  14,N   3,Cl  2,Zr  0)    124.2864         0.001765   
    271. D(Cl  2,N   3,Zr  0,C  18)    139.8999         0.025254   
    272. D(Cl  2,N   3,Zr  0,C   4)    -94.1994         0.025254   
    273. D(Cl  2,N   3,Zr  0,C  10)    -82.7876         0.025254   
    274. D(Cl  2,N   3,Zr  0,C   6)   -102.5859         0.025254   
    275. D(C   4,N   3,Zr  0,Cl  1)     94.3764         0.025254   
    276. D(Cl  2,N   3,Zr  0,C  17)    134.0471         0.025254   
    277. D(Cl  2,N   3,Zr  0,C  16)     97.5189         0.025254   
    278. D(C   4,N   3,Zr  0,Cl  2)     94.1994         0.025254   
    279. D(Cl  2,N   3,Zr  0,C  19)    108.5351         0.025254   
    280. D(Cl  2,N   3,Zr  0,C   7)   -135.8725         0.025254   
    281. D(C   4,N   3,Cl  2,Zr  0)   -124.0735         0.001765   
    282. D(Cl  2,N   3,Zr  0,C   9)   -107.8386         0.025254   
    283. D(Cl  2,N   3,Zr  0,C  14)     86.6670         0.025254   
    284. D(Cl  2,N   3,Zr  0,Cl  1)      0.1770         0.025254   
    285. D(Cl  2,N   3,Zr  0,C   8)   -139.7268         0.025254   
    286. D(Cl  2,N   3,Zr  0,C  20)     80.9006         0.025254   
    287. D(C   5,C   4,N   3,Zr  0)    -11.2029         0.029493   
    288. D(Zr  0,C   4,N   3,C  14)   -179.2834         0.029493   
    289. D(N   3,C   4,Zr  0,C  10)   -168.8199         0.001510   
    290. D(Zr  0,C   4,N   3,Cl  2)     68.9939         0.029493   
    291. D(C   5,C   4,Zr  0,N   3)    169.8799         0.001510   
    292. D(C   5,C   4,N   3,Cl  2)     57.7911         0.029493   
    293. D(C  11,C   4,N   3,Zr  0)    170.8139         0.029493   
    294. D(N   3,C   4,Zr  0,C  14)      0.4817         0.001510   
    295. D(N   3,C   4,Zr  0,C  16)     11.4242         0.001510   
    296. D(N   3,C   4,Zr  0,C  20)     -6.1004         0.001510   
    297. D(C   5,C   4,N   3,C  14)    169.5137         0.029493   
    298. D(N   3,C   4,Zr  0,C   9)    169.0298         0.001510   
    299. D(N   3,C   4,Zr  0,C  19)     35.0583         0.001510   
    300. D(C   5,C   4,Zr  0,C   6)    -20.4295         0.001510   
    301. D(N   3,C   4,Zr  0,Cl  2)    -77.3767         0.001510   
    302. D(N   3,C   4,Zr  0,C  17)     47.2617         0.001510   
    303. D(N   3,C   4,Zr  0,C  18)     63.2505         0.001510   
    304. D(N   3,C   4,Zr  0,C   7)    133.6242         0.001510   
    305. D(C   5,C   4,Zr  0,Cl  2)     92.5031         0.001510   
    306. D(C   5,C   4,Zr  0,Cl  1)     38.6353         0.001510   
    307. D(N   3,C   4,Zr  0,C   8)    139.1573         0.001510   
    308. D(N   3,C   4,Zr  0,C   6)    169.6906         0.001510   
    309. D(N   3,C   4,Zr  0,Cl  1)   -131.2445         0.001510   
    310. D(H  21,C   5,C   4,Zr  0)    -91.9560         0.015063   
    311. D(H  21,C   5,C   4,N   3)    -86.6488         0.015063   
    312. D(H  21,C   5,C   4,C  11)     91.6303         0.015063   
    313. D(C   6,C   5,C   4,C  11)   -150.9645         0.015063   
    314. D(C   6,C   5,C   4,Zr  0)     25.4493         0.015063   
    315. D(C   6,C   5,C   4,N   3)     30.7565         0.015063   
    316. D(C   5,C   6,Zr  0,Cl  1)   -130.8988         0.001907   
    317. D(C   5,C   6,Zr  0,Cl  2)    -39.0626         0.001907   
    318. D(C  10,C   6,C   5,C   4)   -116.8433         0.016617   
    319. D(Zr  0,C   6,C   5,H  22)   -154.0832         0.016617   
    320. D(C   7,C   6,C   5,H  22)    -64.7792         0.016617   
    321. D(C   7,C   6,C   5,C   4)     55.0248         0.016617   
    322. D(C   7,C   6,C   5,H  21)    171.9701         0.016617   
    323. D(Zr  0,C   6,C   5,H  21)     82.6660         0.016617   
    324. D(Zr  0,C   6,C   5,C   4)    -34.2792         0.016617   
    325. D(C   7,C   6,Zr  0,Cl  1)    103.2875         0.001907   
    326. D(C   5,C   6,Zr  0,C  14)     29.8770         0.001907   
    327. D(C   7,C   6,Zr  0,Cl  2)   -164.8763         0.001907   
    328. D(C   7,C   6,Zr  0,N   3)    -99.6667         0.001907   
    329. D(C   7,C   6,Zr  0,C   4)   -103.7668         0.001907   
    330. D(C   5,C   6,Zr  0,C  16)     59.8608         0.001907   
    331. D(C   5,C   6,Zr  0,C  18)    129.1143         0.001907   
    332. D(C   7,C   6,Zr  0,C   8)     38.3015         0.001907   
    333. D(C   5,C   6,Zr  0,C  10)   -119.9087         0.001907   
    334. D(C   5,C   6,Zr  0,C  17)     93.9961         0.001907   
    335. D(C   5,C   6,Zr  0,C   9)   -158.7105         0.001907   
    336. D(C   5,C   6,Zr  0,C  19)    160.9814         0.001907   
    337. D(C   5,C   6,Zr  0,C   4)     22.0469         0.001907   
    338. D(C   5,C   6,Zr  0,C   7)    125.8137         0.001907   
    339. D(C   5,C   6,Zr  0,C   8)    164.1152         0.001907   
    340. D(C   5,C   6,Zr  0,N   3)     26.1470         0.001907   
    341. D(C   8,C   7,C   6,C  10)     -4.8192         0.045106   
    342. D(H  23,C   7,C   6,Zr  0)    117.3182         0.045106   
    343. D(C   8,C   7,C   6,Zr  0)    -71.6794         0.045106   
    344. D(Zr  0,C   7,C   6,C  10)     66.8602         0.045106   
    345. D(Zr  0,C   7,C   6,C   5)   -105.9743         0.045106   
    346. D(C   8,C   7,Zr  0,N   3)   -173.6586         0.001707   
    347. D(C   8,C   7,Zr  0,Cl  2)    132.3303         0.001707   
    348. D(C   8,C   7,Zr  0,Cl  1)     22.9095         0.001707   
    349. D(C   6,C   7,Zr  0,C  20)   -178.8391         0.001707   
    350. D(C   6,C   7,Zr  0,C  19)   -158.5969         0.001707   
    351. D(C   6,C   7,Zr  0,C  18)   -177.1598         0.001707   
    352. D(C   6,C   7,Zr  0,C  17)    152.1683         0.001707   
    353. D(C   6,C   7,Zr  0,C  16)    139.6933         0.001707   
    354. D(C   6,C   7,Zr  0,C  14)     88.9946         0.001707   
    355. D(C   6,C   7,Zr  0,Cl  1)    -90.3975         0.001707   
    356. D(C   8,C   7,Zr  0,C   4)    170.0450         0.001707   
    357. D(C   6,C   7,Zr  0,C   4)     56.7379         0.001707   
    358. D(C   6,C   7,Zr  0,C   9)    -80.6619         0.001707   
    359. D(C   6,C   7,Zr  0,C  10)    -39.6497         0.001707   
    360. D(C   8,C   7,C   6,C   5)   -177.6537         0.045106   
    361. D(C   6,C   7,Zr  0,Cl  2)     19.0232         0.001707   
    362. D(H  23,C   7,C   6,C   5)     11.3439         0.045106   
    363. D(C   6,C   7,Zr  0,C   8)   -113.3071         0.001707   
    364. D(C   6,C   7,Zr  0,N   3)     73.0344         0.001707   
    365. D(C   7,C   8,Zr  0,C  18)    110.8476         0.001560   
    366. D(C   9,C   8,Zr  0,Cl  1)    -39.0046         0.001560   
    367. D(C   9,C   8,Zr  0,N   3)    126.8514         0.001560   
    368. D(C   9,C   8,Zr  0,C   4)    110.7901         0.001560   
    369. D(C   7,C   8,Zr  0,C  17)     85.3978         0.001560   
    370. D(C   9,C   8,Zr  0,Cl  2)     40.9423         0.001560   
    371. D(C   7,C   8,Zr  0,C  16)     96.2393         0.001560   
    372. D(C   7,C   8,Zr  0,C  14)     29.0880         0.001560   
    373. D(C   7,C   8,Zr  0,C  10)    -82.8302         0.001560   
    374. D(C   7,C   8,Zr  0,C   9)   -119.9281         0.001560   
    375. D(C   7,C   8,Zr  0,C  19)    139.9770         0.001560   
    376. D(C   7,C   8,Zr  0,C  20)    139.8683         0.001560   
    377. D(C   7,C   8,Zr  0,N   3)      6.9233         0.001560   
    378. D(C   7,C   8,Zr  0,Cl  2)    -78.9858         0.001560   
    379. D(C   7,C   8,Zr  0,Cl  1)   -158.9327         0.001560   
    380. D(C   7,C   8,Zr  0,C   4)     -9.1380         0.001560   
    381. D(C   7,C   8,Zr  0,C   6)    -38.2269         0.001560   
    382. D(C   9,C   8,C   7,H  23)    173.4714         0.022683   
    383. D(C   9,C   8,C   7,C   6)      2.2702         0.022683   
    384. D(C   9,C   8,C   7,Zr  0)    -62.1987         0.022683   
    385. D(Zr  0,C   8,C   7,H  23)   -124.3299         0.022683   
    386. D(Zr  0,C   8,C   7,C   6)     64.4689         0.022683   
    387. D(H  24,C   8,C   7,Zr  0)    123.1540         0.022683   
    388. D(H  25,C   9,C   8,Zr  0)    133.7288         0.046231   
    389. D(C  10,C   9,C   8,Zr  0)    -56.2033         0.046231   
    390. D(C  10,C   9,C   8,C   7)      1.2264         0.046231   
    391. D(Zr  0,C   9,C   8,H  24)   -128.0657         0.046231   
    392. D(C  10,C   9,C   8,H  24)    175.7309         0.046231   
    393. D(C  10,C   9,Zr  0,N   3)     47.5568         0.001565   
    394. D(C  10,C   9,Zr  0,Cl  2)    -35.4810         0.001565   
    395. D(C  10,C   9,Zr  0,Cl  1)   -107.9916         0.001565   
    396. D(C   8,C   9,Zr  0,C  19)     81.3855         0.001565   
    397. D(C   8,C   9,Zr  0,C  18)     48.1505         0.001565   
    398. D(C   8,C   9,Zr  0,C  16)     60.5906         0.001565   
    399. D(C   8,C   9,Zr  0,C  14)    -58.2305         0.001565   
    400. D(C   8,C   9,Zr  0,C  17)     29.1234         0.001565   
    401. D(C   8,C   9,Zr  0,C  10)   -118.2333         0.001565   
    402. D(C   8,C   9,Zr  0,C   7)    -35.9049         0.001565   
    403. D(C  10,C   9,Zr  0,C   4)     42.1090         0.001565   
    404. D(Zr  0,C   9,C   8,C   7)     57.4297         0.046231   
    405. D(C   8,C   9,Zr  0,C   6)    -76.7464         0.001565   
    406. D(C   8,C   9,Zr  0,C   4)    -76.1243         0.001565   
    407. D(C   8,C   9,Zr  0,N   3)    -70.6765         0.001565   
    408. D(C   8,C   9,Zr  0,Cl  2)   -153.7143         0.001565   
    409. D(C   8,C   9,Zr  0,Cl  1)    133.7751         0.001565   
    410. D(C   8,C   9,Zr  0,C  20)     99.4665         0.001565   
    411. D(H  26,C  10,C   9,Zr  0)    119.2584         0.022986   
    412. D(Zr  0,C  10,C   6,C   5)    103.5755         0.024371   
    413. D(Zr  0,C  10,C   9,H  25)   -126.5552         0.022986   
    414. D(Zr  0,C  10,C   9,C   8)     63.2576         0.022986   
    415. D(H  26,C  10,C   6,Zr  0)   -111.3911         0.024371   
    416. D(H  26,C  10,C   6,C   7)    178.9604         0.024371   
    417. D(C   9,C  10,C   6,Zr  0)     75.2012         0.024371   
    418. D(Zr  0,C  10,C   6,C   7)    -69.6484         0.024371   
    419. D(H  26,C  10,C   6,C   5)     -7.8156         0.024371   
    420. D(C   9,C  10,Zr  0,C   7)    -73.9944         0.001837   
    421. D(C   9,C  10,Zr  0,C   6)   -110.6703         0.001837   
    422. D(C   9,C  10,Zr  0,C   4)   -139.8159         0.001837   
    423. D(H  26,C  10,C   9,C   8)   -177.4840         0.022986   
    424. D(C   6,C  10,C   9,C   8)     -4.0793         0.022986   
    425. D(C   9,C  10,Zr  0,N   3)   -144.2122         0.001837   
    426. D(C   9,C  10,Zr  0,Cl  2)    148.9446         0.001837   
    427. D(C   6,C  10,Zr  0,C   8)     77.3070         0.001837   
    428. D(C   6,C  10,C   9,H  25)    166.1079         0.022986   
    429. D(C   6,C  10,Zr  0,C  20)    174.0023         0.001837   
    430. D(C   6,C  10,Zr  0,C  18)     93.6902         0.001837   
    431. D(C   9,C  10,C   6,C   5)    178.7767         0.024371   
    432. D(C   9,C  10,C   6,C   7)      5.5528         0.024371   
    433. D(C   6,C  10,Zr  0,C  14)    -38.8361         0.001837   
    434. D(C   6,C  10,Zr  0,C  17)     57.0311         0.001837   
    435. D(C   6,C  10,Zr  0,C   9)    110.6703         0.001837   
    436. D(C   9,C  10,Zr  0,Cl  1)     58.5973         0.001837   
    437. D(C   6,C  10,Zr  0,C  19)    135.3407         0.001837   
    438. D(C   6,C  10,Zr  0,C   7)     36.6759         0.001837   
    439. D(C   6,C  10,C   9,Zr  0)    -67.3369         0.022986   
    440. D(C   6,C  10,Zr  0,C   4)    -29.1456         0.001837   
    441. D(C   6,C  10,Zr  0,N   3)    -33.5419         0.001837   
    442. D(C   6,C  10,Zr  0,Cl  2)   -100.3851         0.001837   
    443. D(C   6,C  10,Zr  0,Cl  1)    169.2676         0.001837   
    444. D(H  27,C  11,C   4,N   3)   -177.3666         0.029418   
    445. D(H  27,C  11,C   4,Zr  0)   -166.1015         0.029418   
    446. D(C  12,C  11,C   4,C   5)   -176.5049         0.029418   
    447. D(C  12,C  11,C   4,N   3)      1.4818         0.029418   
    448. D(C  12,C  11,C   4,Zr  0)     12.7470         0.029418   
    449. D(H  28,C  12,C  11,H  27)      2.9524         0.030403   
    450. D(H  28,C  12,C  11,C   4)   -175.8475         0.030403   
    451. D(C  13,C  12,C  11,H  27)   -174.8137         0.030403   
    452. D(C  13,C  12,C  11,C   4)      6.3865         0.030403   
    453. D(H  29,C  13,C  12,H  28)     -3.4484         0.028595   
    454. D(H  29,C  13,C  12,C  11)    174.3216         0.028595   
    455. D(C  14,C  13,C  12,H  28)    176.1519         0.028595   
    456. D(C  14,C  13,C  12,C  11)     -6.0781         0.028595   
    457. D(C  15,C  14,C  13,C  12)    176.5435         0.031481   
    458. D(N   3,C  14,C  13,H  29)    177.4441         0.031481   
    459. D(N   3,C  14,C  13,C  12)     -2.1711         0.031481   
    460. D(Zr  0,C  14,C  13,H  29)    164.7228         0.031481   
    461. D(Zr  0,C  14,C  13,C  12)    -14.8924         0.031481   
    462. D(C  15,C  14,N   3,Zr  0)     10.7797         0.027327   
    463. D(C  13,C  14,N   3,C   4)      8.8151         0.027327   
    464. D(C  13,C  14,N   3,Zr  0)   -170.4907         0.027327   
    465. D(Zr  0,C  14,N   3,C   4)    179.3058         0.027327   
    466. D(Zr  0,C  14,N   3,Cl  2)    -64.4286         0.027327   
    467. D(C  13,C  14,Zr  0,C   4)     19.6651         0.001512   
    468. D(C  13,C  14,Zr  0,N   3)     20.1253         0.001512   
    469. D(C  13,C  14,Zr  0,Cl  2)    103.8520         0.001512   
    470. D(C  13,C  14,Zr  0,Cl  1)    156.4363         0.001512   
    471. D(N   3,C  14,Zr  0,C  20)    174.4704         0.001512   
    472. D(N   3,C  14,Zr  0,C  19)   -162.2707         0.001512   
    473. D(N   3,C  14,Zr  0,C  18)   -130.6443         0.001512   
    474. D(N   3,C  14,Zr  0,C  17)   -126.3922         0.001512   
    475. D(N   3,C  14,Zr  0,C  16)   -166.6603         0.001512   
    476. D(C  13,C  14,N   3,Cl  2)    125.0807         0.027327   
    477. D(N   3,C  14,Zr  0,C  10)     12.8842         0.001512   
    478. D(N   3,C  14,Zr  0,C   9)    -24.3767         0.001512   
    479. D(N   3,C  14,Zr  0,C   8)    -58.4336         0.001512   
    480. D(N   3,C  14,Zr  0,C   7)    -42.6651         0.001512   
    481. D(N   3,C  14,Zr  0,C   6)     -8.9497         0.001512   
    482. D(N   3,C  14,Zr  0,C   4)     -0.4602         0.001512   
    483. D(N   3,C  14,Zr  0,Cl  2)     83.7267         0.001512   
    484. D(N   3,C  14,Zr  0,Cl  1)    136.3110         0.001512   
    485. D(H  30,C  15,C  14,C  13)     26.1850         0.015009   
    486. D(H  30,C  15,C  14,N   3)   -154.9066         0.015009   
    487. D(H  30,C  15,C  14,Zr  0)   -149.5845         0.015009   
    488. D(C  16,C  15,C  14,C  13)    147.4253         0.015009   
    489. D(C  16,C  15,C  14,N   3)    -33.6663         0.015009   
    490. D(C  16,C  15,C  14,Zr  0)    -28.3442         0.015009   
    491. D(C  17,C  16,Zr  0,C   6)     58.1863         0.002090   
    492. D(C  17,C  16,Zr  0,C   4)     87.1136         0.002090   
    493. D(C  17,C  16,Zr  0,N   3)     91.6189         0.002090   
    494. D(C  17,C  16,Zr  0,Cl  1)   -111.2659         0.002090   
    495. D(C  15,C  16,Zr  0,C  20)    122.3306         0.002090   
    496. D(C  15,C  16,Zr  0,C  19)    160.5974         0.002090   
    497. D(C  15,C  16,Zr  0,C  18)   -157.9790         0.002090   
    498. D(C  15,C  16,Zr  0,C  17)   -121.7498         0.002090   
    499. D(C  15,C  16,Zr  0,C  14)    -24.6352         0.002090   
    500. D(C  15,C  16,Zr  0,C   9)   -173.4401         0.002090   
    501. D(C  15,C  16,Zr  0,C   8)   -140.5145         0.002090   
    502. D(C  15,C  16,Zr  0,C   7)   -100.0716         0.002090   
    503. D(C  15,C  16,Zr  0,C   6)    -63.5635         0.002090   
    504. D(C  17,C  16,Zr  0,Cl  2)    158.3696         0.002090   
    505. D(C  15,C  16,Zr  0,C   4)    -34.6363         0.002090   
    506. D(C  15,C  16,Zr  0,N   3)    -30.1309         0.002090   
    507. D(C  15,C  16,Zr  0,Cl  2)     36.6197         0.002090   
    508. D(C  15,C  16,C  10,C   6)    -63.6668         0.001500   
    509. D(C  15,C  16,Zr  0,Cl  1)    126.9843         0.002090   
    510. D(C  20,C  16,C  15,C  14)    123.8682         0.015801   
    511. D(C  17,C  16,C  15,H  31)   -168.7110         0.015801   
    512. D(C  17,C  16,C  15,C  14)    -51.3539         0.015801   
    513. D(Zr  0,C  16,C  15,H  31)    -78.6150         0.015801   
    514. D(Zr  0,C  16,C  15,H  30)    158.1588         0.015801   
    515. D(Zr  0,C  16,C  15,C  14)     38.7421         0.015801   
    516. D(C  20,C  16,C  10,C   9)     63.1986         0.001500   
    517. D(C  20,C  16,C  10,C   6)    173.8891         0.001500   
    518. D(C  17,C  16,C  10,H  26)    179.8325         0.001500   
    519. D(C  17,C  16,C  10,C   9)    -52.6483         0.001500   
    520. D(C  17,C  16,C  15,H  30)     68.0629         0.015801   
    521. D(C  17,C  16,C  10,C   6)     58.0423         0.001500   
    522. D(C  15,C  16,C  10,H  26)     58.1234         0.001500   
    523. D(C  15,C  16,C  10,C   9)   -174.3573         0.001500   
    524. D(H  32,C  17,C  16,C  15)     -8.0045         0.020229   
    525. D(H  32,C  17,C  16,Zr  0)   -114.1802         0.020229   
    526. D(C  18,C  17,C  16,C  20)      2.2235         0.020229   
    527. D(C  18,C  17,C  16,C  15)    178.0019         0.020229   
    528. D(C  18,C  17,C  16,Zr  0)     71.8263         0.020229   
    529. D(Zr  0,C  17,C  16,C  20)    -69.6028         0.020229   
    530. D(C  18,C  17,Zr  0,C   4)    152.4403         0.001640   
    531. D(C  18,C  17,Zr  0,N   3)    169.1158         0.001640   
    532. D(C  18,C  17,Zr  0,Cl  2)   -137.3326         0.001640   
    533. D(C  18,C  17,Zr  0,Cl  1)    -28.3859         0.001640   
    534. D(C  16,C  17,Zr  0,C  20)     37.9146         0.001640   
    535. D(C  16,C  17,Zr  0,C  19)     75.4509         0.001640   
    536. D(C  16,C  17,Zr  0,C  18)    110.9009         0.001640   
    537. D(C  16,C  17,Zr  0,C  14)    -60.7645         0.001640   
    538. D(C  16,C  17,Zr  0,C  10)   -178.8026         0.001640   
    539. D(C  16,C  17,Zr  0,C   9)    150.5227         0.001640   
    540. D(Zr  0,C  17,C  16,C  15)    106.1756         0.020229   
    541. D(C  16,C  17,Zr  0,C   8)    164.8273         0.001640   
    542. D(C  16,C  17,Zr  0,C   7)   -161.7929         0.001640   
    543. D(C  16,C  17,Zr  0,C   6)   -144.9035         0.001640   
    544. D(C  16,C  17,Zr  0,C   4)    -96.6587         0.001640   
    545. D(C  16,C  17,Zr  0,N   3)    -79.9833         0.001640   
    546. D(C  16,C  17,Zr  0,Cl  2)    -26.4316         0.001640   
    547. D(C  16,C  17,Zr  0,Cl  1)     82.5150         0.001640   
    548. D(H  33,C  18,C  17,Zr  0)   -125.9082         0.050121   
    549. D(C  19,C  18,C  17,C  16)     -0.3253         0.050121   
    550. D(C  19,C  18,C  17,Zr  0)     60.0629         0.050121   
    551. D(Zr  0,C  18,C  17,H  32)    126.0345         0.050121   
    552. D(C  19,C  18,Zr  0,C   4)   -152.8014         0.001553   
    553. D(C  19,C  18,Zr  0,N   3)   -131.5420         0.001553   
    554. D(C  19,C  18,Zr  0,Cl  2)    -53.1653         0.001553   
    555. D(C  19,C  18,Zr  0,Cl  1)     34.3751         0.001553   
    556. D(C  17,C  18,Zr  0,C  20)     87.2279         0.001553   
    557. D(C  17,C  18,Zr  0,C  19)    120.2246         0.001553   
    558. D(C  17,C  18,Zr  0,C  16)     42.6303         0.001553   
    559. D(C  17,C  18,Zr  0,C  14)      7.4951         0.001553   
    560. D(C  17,C  18,Zr  0,C  10)   -136.4590         0.001553   
    561. D(C  17,C  18,Zr  0,C   9)   -145.8354         0.001553   
    562. D(C  17,C  18,Zr  0,C   8)   -122.6302         0.001553   
    563. D(C  17,C  18,Zr  0,C   7)    -91.5518         0.001553   
    564. D(Zr  0,C  18,C  17,C  16)    -60.3882         0.050121   
    565. D(C  17,C  18,Zr  0,C   6)    -93.3713         0.001553   
    566. D(C  17,C  18,Zr  0,C   4)    -32.5768         0.001553   
    567. D(C  17,C  18,Zr  0,N   3)    -11.3174         0.001553   
    568. D(C  19,C  18,C  17,H  32)   -173.9026         0.050121   
    569. D(C  17,C  18,Zr  0,Cl  2)     67.0593         0.001553   
    570. D(C  17,C  18,Zr  0,Cl  1)    154.5997         0.001553   
    571. D(H  34,C  19,C  18,Zr  0)   -129.0490         0.019234   
    572. D(C  20,C  19,C  18,H  33)   -176.1560         0.019234   
    573. D(C  20,C  19,C  18,C  17)     -1.7592         0.019234   
    574. D(C  20,C  19,C  18,Zr  0)     56.8892         0.019234   
    575. D(Zr  0,C  19,C  18,C  17)    -58.6484         0.019234   
    576. D(C  20,C  19,Zr  0,C   4)    -73.4615         0.001580   
    577. D(C  20,C  19,Zr  0,N   3)    -57.1969         0.001580   
    578. D(C  20,C  19,Zr  0,Cl  2)     25.4045         0.001580   
    579. D(C  20,C  19,Zr  0,Cl  1)     98.8059         0.001580   
    580. D(C  18,C  19,Zr  0,C  20)    121.1940         0.001580   
    581. D(C  18,C  19,Zr  0,C  17)     32.7427         0.001580   
    582. D(C  18,C  19,Zr  0,C  16)     77.2274         0.001580   
    583. D(C  18,C  19,Zr  0,C  14)     72.9375         0.001580   
    584. D(C  18,C  19,Zr  0,C  10)   -102.2459         0.001580   
    585. D(C  18,C  19,Zr  0,C   9)    -88.7517         0.001580   
    586. D(C  18,C  19,Zr  0,C   8)    -58.6309         0.001580   
    587. D(C  18,C  19,Zr  0,C   7)    -35.5434         0.001580   
    588. D(Zr  0,C  19,C  18,H  33)    126.9549         0.019234   
    589. D(C  18,C  19,Zr  0,C   6)    -56.0690         0.001580   
    590. D(C  18,C  19,Zr  0,C   4)     47.7325         0.001580   
    591. D(C  18,C  19,Zr  0,N   3)     63.9971         0.001580   
    592. D(C  18,C  19,Zr  0,Cl  2)    146.5984         0.001580   
    593. D(C  18,C  19,Zr  0,Cl  1)   -140.0001         0.001580   
    594. D(H  35,C  20,C  19,C  18)    176.3685         0.047997   
    595. D(C  16,C  20,C  19,H  34)   -170.5892         0.047997   
    596. D(C  16,C  20,C  19,C  18)      2.9592         0.047997   
    597. D(C  16,C  20,C  19,Zr  0)     65.4859         0.047997   
    598. D(Zr  0,C  20,C  19,C  18)    -62.5268         0.047997   
    599. D(H  35,C  20,C  16,C  17)   -176.9410         0.025591   
    600. D(H  35,C  20,C  16,C  15)      7.3646         0.025591   
    601. D(H  35,C  20,C  16,Zr  0)    110.6327         0.025591   
    602. D(C  19,C  20,C  16,C  17)     -3.2381         0.025591   
    603. D(C  19,C  20,C  16,C  15)   -178.9325         0.025591   
    604. D(C  19,C  20,C  16,Zr  0)    -75.6643         0.025591   
    605. D(Zr  0,C  20,C  16,C  15)   -103.2681         0.025591   
    606. D(H  35,C  20,C   6,C   7)    168.3649         0.001500   
    607. D(H  35,C  20,C   6,C   5)    -66.3794         0.001500   
    608. D(C  19,C  20,C   6,C   7)     37.6595         0.001500   
    609. D(C  19,C  20,C   6,C   5)    162.9152         0.001500   
    610. D(C  16,C  20,C   6,C  10)    173.8062         0.001500   
    611. D(C  16,C  20,C   6,C   7)    -71.3024         0.001500   
    612. D(C  16,C  20,C   6,C   5)     53.9534         0.001500   
    613. D(C  19,C  20,Zr  0,C   8)      0.2065         0.001811   
    614. D(C  19,C  20,Zr  0,C   7)     36.5051         0.001811   
    615. D(C  19,C  20,Zr  0,C   4)    138.5582         0.001811   
    616. D(C  19,C  20,C   6,C  10)    -77.2319         0.001500   
    617. D(C  19,C  20,Zr  0,N   3)    136.1086         0.001811   
    618. D(C  19,C  20,Zr  0,Cl  2)   -157.6555         0.001811   
    619. D(C  19,C  20,Zr  0,Cl  1)    -67.1101         0.001811   
    620. D(Zr  0,C  20,C  16,C  17)     72.4262         0.025591   
    621. D(C  16,C  20,Zr  0,C  19)   -108.1485         0.001811   
    622. D(C  16,C  20,Zr  0,C  18)    -73.6727         0.001811   
    623. D(C  16,C  20,Zr  0,C  17)    -37.5095         0.001811   
    624. D(C  16,C  20,Zr  0,C  14)     25.6354         0.001811   
    625. D(C  16,C  20,Zr  0,C  10)    179.8992         0.001811   
    626. D(C  16,C  20,Zr  0,C   9)   -144.1078         0.001811   
    627. D(C  16,C  20,Zr  0,C   8)   -107.9421         0.001811   
    628. D(Zr  0,C  20,C  19,H  34)    123.9248         0.047997   
    629. D(C  16,C  20,Zr  0,C   7)    -71.6434         0.001811   
    630. D(C  16,C  20,Zr  0,C   4)     30.4096         0.001811   
    631. D(C  16,C  20,Zr  0,N   3)     27.9601         0.001811   
    632. D(H  35,C  20,C  19,Zr  0)   -121.1047         0.047997   
    633. D(C  16,C  20,Zr  0,Cl  2)     94.1959         0.001811   
    634. D(C  16,C  20,Zr  0,Cl  1)   -175.2586         0.001811   
    -----------------------------------------------------------------

Number of atoms                         .... 36
Number of degrees of freedom            .... 634


         *************************************************************
         *                GEOMETRY OPTIMIZATION CYCLE   1            *
         *************************************************************
---------------------------------
CARTESIAN COORDINATES (ANGSTROEM)
---------------------------------
  Zr    0.000000    0.000000    0.000000
  Cl    0.000000    0.000000   -1.939000
  Cl    1.939000    0.000000    0.000000
  N     0.647779   -0.001854    1.595514
  C     0.903689    1.072795    2.437031
  C     0.820926    2.414743    1.800507
  C    -0.202420    2.141206    0.775293
  C    -1.437294    1.639369    0.957568
  C    -2.044780    1.499104   -0.332357
  C    -1.167957    1.864660   -1.280693
  C     0.050120    2.226805   -0.622838
  C     1.262905    1.076699    3.779653
  C     1.449383   -0.088842    4.484989
  C     1.378164   -1.208126    3.676046
  C     1.022604   -1.122011    2.344144
  C     1.064415   -2.394857    1.574442
  C    -0.048356   -2.143150    0.630110
  C    -1.366955   -1.721091    1.053458
  C    -2.041888   -1.566733   -0.084875
  C    -1.168130   -1.876491   -1.205638
  C     0.061906   -2.187678   -0.781885
  H     1.781668    2.688988    1.343921
  H     0.539137    3.193499    2.511870
  H    -1.954136    1.509097    1.909054
  H    -3.084006    1.229240   -0.489346
  H    -1.386581    2.026987   -2.326753
  H     0.952699    2.606483   -1.095013
  H     1.371561    2.040295    4.253723
  H     1.664006   -0.125084    5.537291
  H     1.593737   -2.191220    4.065414
  H     0.922292   -3.266645    2.218677
  H     2.021663   -2.509745    1.048534
  H    -1.707358   -1.667307    2.082510
  H    -3.097327   -1.348300   -0.207916
  H    -1.557476   -1.932770   -2.216848
  H     0.926325   -2.515220   -1.348294

----------------------------
CARTESIAN COORDINATES (A.U.)
----------------------------
  NO LB    ZA    FRAG    MASS        X           Y           Z
   0 Zr 40.0000    0    91.220    0.000000    0.000000    0.000000
   1 Cl 17.0000    0    35.453    0.000000    0.000000   -3.664179
   2 Cl 17.0000    0    35.453    3.664179    0.000000    0.000000
   3 N   7.0000    0    14.007    1.224125   -0.003504    3.015085
   4 C   6.0000    0    12.011    1.707725    2.027289    4.605321
   5 C   6.0000    0    12.011    1.551325    4.563203    3.402465
   6 C   6.0000    0    12.011   -0.382518    4.046293    1.465091
   7 C   6.0000    0    12.011   -2.716092    3.097958    1.809541
   8 C   6.0000    0    12.011   -3.864074    2.832896   -0.628064
   9 C   6.0000    0    12.011   -2.207119    3.523697   -2.420159
  10 C   6.0000    0    12.011    0.094713    4.208052   -1.176993
  11 C   6.0000    0    12.011    2.386545    2.034666    7.142509
  12 C   6.0000    0    12.011    2.738937   -0.167887    8.475401
  13 C   6.0000    0    12.011    2.604353   -2.283027    6.946720
  14 C   6.0000    0    12.011    1.932442   -2.120294    4.429790
  15 C   6.0000    0    12.011    2.011453   -4.525624    2.975264
  16 C   6.0000    0    12.011   -0.091380   -4.049967    1.190735
  17 C   6.0000    0    12.011   -2.583171   -3.252391    1.990747
  18 C   6.0000    0    12.011   -3.858609   -2.960696   -0.160391
  19 C   6.0000    0    12.011   -2.207446   -3.546054   -2.278326
  20 C   6.0000    0    12.011    0.116985   -4.134112   -1.477549
  21 H   1.0000    0     1.008    3.366865    5.081451    2.539643
  22 H   1.0000    0     1.008    1.018821    6.034839    4.746746
  23 H   1.0000    0     1.008   -3.692782    2.851780    3.607589
  24 H   1.0000    0     1.008   -5.827927    2.322927   -0.924730
  25 H   1.0000    0     1.008   -2.620258    3.830450   -4.396926
  26 H   1.0000    0     1.008    1.800340    4.925539   -2.069275
  27 H   1.0000    0     1.008    2.591875    3.855599    8.038372
  28 H   1.0000    0     1.008    3.144516   -0.236375   10.463964
  29 H   1.0000    0     1.008    3.011726   -4.140806    7.682519
  30 H   1.0000    0     1.008    1.742879   -6.173064    4.192692
  31 H   1.0000    0     1.008    3.820389   -4.742731    1.981442
  32 H   1.0000    0     1.008   -3.226439   -3.150754    3.935374
  33 H   1.0000    0     1.008   -5.853100   -2.547918   -0.392904
  34 H   1.0000    0     1.008   -2.943203   -3.652406   -4.189236
  35 H   1.0000    0     1.008    1.750501   -4.753077   -2.547906

      -----------------------------------------------------------      
     |                   =====================                   |     
     |                           x T B                           |     
     |                   =====================                   |     
     |                         S. Grimme                         |     
     |          Mulliken Center for Theoretical Chemistry        |     
     |                    University of Bonn                     |     
      -----------------------------------------------------------      

   * xtb version 6.7.1 (edcfbbe) compiled by 'albert@albert-system' on 2024-07-22

   xtb is free software: you can redistribute it and/or modify it under
   the terms of the GNU Lesser General Public License as published by
   the Free Software Foundation, either version 3 of the License, or
   (at your option) any later version.
   
   xtb is distributed in the hope that it will be useful,
   but WITHOUT ANY WARRANTY; without even the implied warranty of
   MERCHANTABILITY or FITNESS FOR A PARTICULAR PURPOSE.  See the
   GNU Lesser General Public License for more details.
   
   Cite this work as:
   * C. Bannwarth, E. Caldeweyher, S. Ehlert, A. Hansen, P. Pracht,
     J. Seibert, S. Spicher, S. Grimme, WIREs Comput. Mol. Sci., 2020, 11,
     e01493. DOI: 10.1002/wcms.1493
   
   for GFN2-xTB:
   * C. Bannwarth, S. Ehlert and S. Grimme., J. Chem. Theory Comput., 2019,
     15, 1652-1671. DOI: 10.1021/acs.jctc.8b01176
   for GFN1-xTB:
   * S. Grimme, C. Bannwarth, P. Shushkov, J. Chem. Theory Comput., 2017,
     13, 1989-2009. DOI: 10.1021/acs.jctc.7b00118
   for GFN0-xTB:
   * P. Pracht, E. Caldeweyher, S. Ehlert, S. Grimme, ChemRxiv, 2019, preprint.
     DOI: 10.26434/chemrxiv.8326202.v1
   for GFN-FF:
   * S. Spicher and S. Grimme, Angew. Chem. Int. Ed., 2020, 59, 15665-15673.
     DOI: 10.1002/anie.202004239
   
   for ALPB and GBSA implicit solvation:
   * S. Ehlert, M. Stahn, S. Spicher, S. Grimme, J. Chem. Theory Comput.,
     2021, 17, 4250-4261. DOI: 10.1021/acs.jctc.1c00471
   
   for ddCOSMO and CPCM-X implicit solvation:
   * M. Stahn, S. Ehlert, S. Grimme, J. Phys. Chem. A,
     2023, XX, XXXX-XXXX. DOI: 10.1021/acs.jpca.3c04382
   
   for DFT-D4:
   * E. Caldeweyher, C. Bannwarth and S. Grimme, J. Chem. Phys., 2017,
     147, 034112. DOI: 10.1063/1.4993215
   * E. Caldeweyher, S. Ehlert, A. Hansen, H. Neugebauer, S. Spicher,
     C. Bannwarth and S. Grimme, J. Chem. Phys., 2019, 150, 154122.
     DOI: 10.1063/1.5090222
   * E. Caldeweyher, J.-M. Mewes, S. Ehlert and S. Grimme, Phys. Chem. Chem. Phys.
     2020, 22, 8499-8512. DOI: 10.1039/D0CP00502A
   
   for sTDA-xTB:
   * S. Grimme and C. Bannwarth, J. Chem. Phys., 2016, 145, 054103.
     DOI: 10.1063/1.4959605
   
   in the mass-spec context:
   * V. Asgeirsson, C. Bauer and S. Grimme, Chem. Sci., 2017, 8, 4879.
     DOI: 10.1039/c7sc00601b
   * J. Koopman and S. Grimme, ACS Omega 2019, 4, 12, 15120-15133.
     DOI: 10.1021/acsomega.9b02011
   
   for metadynamics refer to:
   * S. Grimme, J. Chem. Theory Comput., 2019, 155, 2847-2862
     DOI: 10.1021/acs.jctc.9b00143
   
   for SPH calculations refer to:
   * S. Spicher and S. Grimme, J. Chem. Theory Comput., 2021, 17, 1701-1714
     DOI: 10.1021/acs.jctc.0c01306
   
   for ONIOM refer to:
   * C. Plett, A. Katbashev, S. Ehlert, S. Grimme, M. Bursch,
     Phys. Chem. Chem. Phys., 2023, 25, 17860-17868. DOI: 10.1039/D3CP02178E
   
   for DIPRO refer to:
   * J. Kohn, N. Gildemeister, S. Grimme, D. Fazzi, A. Hansen,
     J. Chem. Phys., 2023, just accepted.
   
   for PTB refer to:
   * S. Grimme, M. Mueller, A. Hansen, J. Chem. Phys., 2023, 158, 124111.
     DOI: 10.1063/5.0137838
   
   with help from (in alphabetical order)
   P. Atkinson, C. Bannwarth, F. Bohle, G. Brandenburg, E. Caldeweyher
   M. Checinski, S. Dohm, S. Ehlert, S. Ehrlich, I. Gerasimov, C. Hölzer
   A. Katbashev, J. Kohn, J. Koopman, C. Lavigne, S. Lehtola, F. März, M. Müller,
   F. Musil, H. Neugebauer, J. Pisarek, C. Plett, P. Pracht, F. Pultar,
   J. Seibert, P. Shushkov, S. Spicher, M. Stahn, M. Steiner, T. Strunk,
   J. Stückrath, T. Rose, and J. Unsleber
   
 * started run on 2025/11/20 at 22:30:35.435     
   ID    Z sym.   atoms
    1   40 Zr     1
    2   17 Cl     2, 3
    3    7 N      4
    4    6 C      5-21
    5    1 H      22-36

           -------------------------------------------------
          |                Calculation Setup                |
           -------------------------------------------------

          program call               : otool_xtb final_relax_1_XTB.xyz --grad -c 0 -u 0 -P 1 --namespace final_relax_1 --input final_relax_1_XTB.input.tmp --acc 0.200000
          hostname                   : saraswati
          calculation namespace      : final_relax_1
          coordinate file            : final_relax_1_XTB.xyz
          omp threads                :                     1


molecular fragmentation (1/2 indicates fragments):
111111111111111111111121111111121111
# atoms in fragment 1/2:    34     2
 fragment masses (1/2) :      393.42        2.02
CMA distance (Bohr)    :   3.299
constraining FC (au)   :  0.0500

           -------------------------------------------------
          |                 G F N 2 - x T B                 |
           -------------------------------------------------

        Reference                      10.1021/acs.jctc.8b01176
      * Hamiltonian:
        H0-scaling (s, p, d)           1.850000    2.230000    2.230000
        zeta-weighting                 0.500000
      * Dispersion:
        s8                             2.700000
        a1                             0.520000
        a2                             5.000000
        s9                             5.000000
      * Repulsion:
        kExp                           1.500000    1.000000
        rExp                           1.000000
      * Coulomb:
        alpha                          2.000000
        third order                    shell-resolved
        anisotropic                    true
        a3                             3.000000
        a5                             4.000000
        cn-shift                       1.200000
        cn-exp                         4.000000
        max-rad                        5.000000


          ...................................................
          :                      SETUP                      :
          :.................................................:
          :  # basis functions                 117          :
          :  # atomic orbitals                 114          :
          :  # shells                           60          :
          :  # electrons                       106          :
          :  max. iterations                   250          :
          :  Hamiltonian                  GFN2-xTB          :
          :  restarted?                      false          :
          :  GBSA solvation                  false          :
          :  PC potential                    false          :
          :  electronic temp.          300.0000000     K    :
          :  accuracy                    0.2000000          :
          :  -> integral cutoff          0.3198970E+02      :
          :  -> integral neglect         0.2000000E-08      :
          :  -> SCF convergence          0.2000000E-06 Eh   :
          :  -> wf. convergence          0.2000000E-04 e    :
          :  Broyden damping             0.4000000          :
          :  net charge                          0          :
          :  unpaired electrons                  0          :
          ...................................................

 iter      E             dE          RMSdq      gap      omega  full diag
   1    -58.4454731 -0.584455E+02  0.435E+00    1.24       0.0  T
   2    -58.6066228 -0.161150E+00  0.275E+00    0.68       1.0  T
   3    -58.6158857 -0.926284E-02  0.163E+00    0.78       1.0  T
   4    -58.5987919  0.170938E-01  0.968E-01    0.28       1.0  T
   5    -58.6250171 -0.262252E-01  0.266E-01    0.60       1.0  T
   6    -58.6253536 -0.336475E-03  0.199E-01    0.57       1.0  T
   7    -58.6255954 -0.241833E-03  0.126E-01    0.57       1.0  T
   8    -58.6257577 -0.162237E-03  0.780E-02    0.61       1.0  T
   9    -58.6258461 -0.884351E-04  0.397E-02    0.60       1.0  T
  10    -58.6258700 -0.239057E-04  0.216E-02    0.60       1.0  T
  11    -58.6258760 -0.593535E-05  0.897E-03    0.60       1.9  T
  12    -58.6258763 -0.320218E-06  0.619E-03    0.60       2.7  T
  13    -58.6258765 -0.232127E-06  0.286E-03    0.60       5.8  T
  14    -58.6258765 -0.179247E-07  0.151E-03    0.60      11.0  T
  15    -58.6258766 -0.278889E-07  0.588E-04    0.60      28.3  T
  16    -58.6258766 -0.275548E-08  0.283E-04    0.60      58.9  T
  17    -58.6258766 -0.387338E-09  0.190E-04    0.60      87.7  T
  18    -58.6258766 -0.293596E-09  0.108E-04    0.60     154.0  T

   *** convergence criteria satisfied after 18 iterations ***

         #    Occupation            Energy/Eh            Energy/eV
      -------------------------------------------------------------
         1        2.0000           -1.1043042             -30.0496
       ...           ...                  ...                  ...
        47        2.0000           -0.4044008             -11.0043
        48        2.0000           -0.3957557             -10.7691
        49        2.0000           -0.3785201             -10.3001
        50        2.0000           -0.3636106              -9.8943
        51        2.0000           -0.3488675              -9.4932
        52        2.0000           -0.3287471              -8.9457
        53        2.0000           -0.3150935              -8.5741 (HOMO)
        54        0.0000           -0.2931433              -7.9768 (LUMO)
        55                         -0.2544833              -6.9248
        56                         -0.2434445              -6.6245
        57                         -0.2372303              -6.4554
        58                         -0.2186684              -5.9503
       ...                                ...                  ...
       114                          3.7140164             101.0635
      -------------------------------------------------------------
                  HL-Gap            0.0219501 Eh            0.5973 eV
             Fermi-level           -0.3041184 Eh           -8.2755 eV

 SCC (total)                   0 d,  0 h,  0 min,  0.128 sec
 SCC setup                      ...        0 min,  0.001 sec (  0.500%)
 Dispersion                     ...        0 min,  0.001 sec (  0.711%)
 classical contributions        ...        0 min,  0.000 sec (  0.121%)
 integral evaluation            ...        0 min,  0.026 sec ( 20.416%)
 iterations                     ...        0 min,  0.058 sec ( 45.541%)
 molecular gradient             ...        0 min,  0.041 sec ( 32.440%)
 printout                       ...        0 min,  0.000 sec (  0.242%)

         :::::::::::::::::::::::::::::::::::::::::::::::::::::
         ::                     SUMMARY                     ::
         :::::::::::::::::::::::::::::::::::::::::::::::::::::
         :: total energy             -57.509157260689 Eh    ::
         :: gradient norm              0.716378095602 Eh/a0 ::
         :: HOMO-LUMO gap              0.597293951435 eV    ::
         ::.................................................::
         :: SCC energy               -58.624754184931 Eh    ::
         :: -> isotropic ES            0.042400747674 Eh    ::
         :: -> anisotropic ES         -0.000524018207 Eh    ::
         :: -> anisotropic XC          0.013727908653 Eh    ::
         :: -> dispersion             -0.054969974802 Eh    ::
         :: repulsion energy           1.115596924243 Eh    ::
         :: add. restraining           0.000000000000 Eh    ::
         :: total charge               0.000000000011 e     ::
         :::::::::::::::::::::::::::::::::::::::::::::::::::::


Property printout bound to 'properties.out'

           -------------------------------------------------
          | TOTAL ENERGY              -57.509157260689 Eh   |
          | GRADIENT NORM               0.716378095602 Eh/α |
          | HOMO-LUMO GAP               0.597293951435 eV   |
           -------------------------------------------------

------------------------------------------------------------------------
 * finished run on 2025/11/20 at 22:30:35.620     
------------------------------------------------------------------------
 total:
 * wall-time:     0 d,  0 h,  0 min,  0.184 sec
 *  cpu-time:     0 d,  0 h,  0 min,  0.170 sec
 * ratio c/w:     0.922 speedup
 SCF:
 * wall-time:     0 d,  0 h,  0 min,  0.128 sec
 *  cpu-time:     0 d,  0 h,  0 min,  0.127 sec
 * ratio c/w:     0.992 speedup


-------------------------   --------------------
FINAL SINGLE POINT ENERGY       -57.509157260690
-------------------------   --------------------


-------------
DIPOLE MOMENT
-------------
                                X             Y             Z
Total Dipole Moment    :      0.09600      -0.04600       2.80100
                        -----------------------------------------
Magnitude (a.u.)       :      2.80302
Magnitude (Debye)      :      7.12472

------------------------------------------------------------------------------
                         ORCA GEOMETRY RELAXATION STEP
------------------------------------------------------------------------------

Reading the OPT-File                    .... done
Getting information on internals        .... done
Copying old internal coords+grads       .... done
Making the new internal coordinates     .... (2022 redundants) done
Validating the new internal coordinates .... (2022 redundants) done
Calculating the B-matrix                .... done
Calculating the G,G- and P matrices     .... done
Transforming gradient to internals      .... done
Projecting the internal gradient        .... done
Number of atoms                         ....  36
Number of internal coordinates          .... 634
Current Energy                          ....   -57.509157261 Eh
Current gradient norm                   ....     0.716378096 Eh/bohr
Maximum allowed component of the step   ....  0.300
Current trust radius                    ....  0.300
Evaluating the initial hessian          ....  (Almloef) done
Projecting the Hessian                  .... done
Forming the augmented Hessian           .... done
Diagonalizing the augmented Hessian     .... done
Last element of RFO vector              ....  0.902810278
Lowest eigenvalues of augmented Hessian:
 -0.192731880  0.014026684  0.020225076  0.021917986  0.022361824
Length of the computed step             ....  0.476333822
Warning: the length of the step is outside the trust region - taking restricted step instead
The input lambda is                     ....     0.013021
   iter:   5  x=   -0.173796  g=    3.294840 f(x)=     0.344592
   iter:  10  x=   -0.590094  g=    0.142206 f(x)=     0.000046
The output lambda is                    ....    -0.590094 (13 iterations)
The final length of the internal step   ....  0.300000000
Converting the step to Cartesian space:
 Initial RMS(Int)=    0.0119145221
Transforming coordinates:
 Iter   0:  RMS(Cart)=    0.0290995876 RMS(Int)=    0.2495988214
done
Storing new coordinates                 .... done

                                .--------------------.
          ----------------------|Geometry convergence|-------------------------
[...]
  C     0.541034    2.401083    1.999405
  C    -0.343790    2.157206    0.811950
  C    -1.623625    1.551048    0.853164
  C    -2.138272    1.537095   -0.463551
  C    -1.186608    2.129864   -1.310971
  C    -0.062474    2.489101   -0.535115
  C     1.660292    1.144188    3.866492
  C     2.060466   -0.049477    4.439569
  C     1.746210   -1.231684    3.793152
  C     1.030350   -1.181496    2.602703
  C     0.718082   -2.448553    1.848386
  C    -0.232319   -2.199954    0.713849
  C    -1.531667   -1.649930    0.841116
  C    -2.106620   -1.593522   -0.448231
  C    -1.172932   -2.103306   -1.366125
  C    -0.001742   -2.456544   -0.659134
  H     1.453217    2.917138    1.679573
  H     0.038162    3.042921    2.732319
  H    -2.167908    1.295057    1.753952
  H    -3.144955    1.261456   -0.747970
  H    -1.318989    2.339916   -2.363567
  H     0.811379    3.025287   -0.890655
  H     1.900931    2.089932    4.326335
  H     2.615926   -0.057930    5.365139
  H     2.055939   -2.183817    4.194706
  H     0.308547   -3.187812    2.546772
  H     1.660983   -2.848964    1.458140
  H    -2.041919   -1.455699    1.776564
  H    -3.135396   -1.344861   -0.671102
  H    -1.343795   -2.265722   -2.421624
  H     0.874561   -2.938912   -1.080220

----------------------------
CARTESIAN COORDINATES (A.U.)
----------------------------
  NO LB    ZA    FRAG    MASS        X           Y           Z
   0 Zr 40.0000    0    91.220   -0.126627    0.009564   -0.676694
   1 Cl 17.0000    0    35.453    0.736974    0.083376   -5.093789
   2 Cl 17.0000    0    35.453    4.339264    0.082718   -0.345220
   3 N   7.0000    0    14.007    1.171365   -0.053856    3.904658
   4 C   6.0000    0    12.011    1.789885    2.107577    5.051815
   5 C   6.0000    0    12.011    1.022405    4.537390    3.778328
   6 C   6.0000    0    12.011   -0.649668    4.076529    1.534362
   7 C   6.0000    0    12.011   -3.068206    2.931056    1.612246
   8 C   6.0000    0    12.011   -4.040749    2.904688   -0.875984
   9 C   6.0000    0    12.011   -2.242364    4.024860   -2.477377
  10 C   6.0000    0    12.011   -0.118059    4.703719   -1.011220
  11 C   6.0000    0    12.011    3.137497    2.162201    7.306611
  12 C   6.0000    0    12.011    3.893716   -0.093498    8.389570
  13 C   6.0000    0    12.011    3.299859   -2.327546    7.168019
  14 C   6.0000    0    12.011    1.947079   -2.232704    4.918396
  15 C   6.0000    0    12.011    1.356979   -4.627095    3.492943
  16 C   6.0000    0    12.011   -0.439019   -4.157311    1.348980
  17 C   6.0000    0    12.011   -2.894431   -3.117916    1.589479
  18 C   6.0000    0    12.011   -3.980935   -3.011320   -0.847035
  19 C   6.0000    0    12.011   -2.216521   -3.974672   -2.581601
  20 C   6.0000    0    12.011   -0.003292   -4.642196   -1.245582
  21 H   1.0000    0     1.008    2.746181    5.512592    3.173932
  22 H   1.0000    0     1.008    0.072116    5.750288    5.163334
  23 H   1.0000    0     1.008   -4.096753    2.447304    3.314488
  24 H   1.0000    0     1.008   -5.943103    2.383806   -1.413459
  25 H   1.0000    0     1.008   -2.492529    4.421801   -4.466494
  26 H   1.0000    0     1.008    1.533285    5.716964   -1.683094
  27 H   1.0000    0     1.008    3.592239    3.949400    8.175589
  28 H   1.0000    0     1.008    4.943383   -0.109472   10.138644
  29 H   1.0000    0     1.008    3.885162   -4.126815    7.926845
  30 H   1.0000    0     1.008    0.583069   -6.024091    4.812701
  31 H   1.0000    0     1.008    3.138802   -5.383761    2.755485
  32 H   1.0000    0     1.008   -3.858668   -2.750873    3.357220
  33 H   1.0000    0     1.008   -5.925039   -2.541419   -1.268198
  34 H   1.0000    0     1.008   -2.539405   -4.281595   -4.576206
  35 H   1.0000    0     1.008    1.652680   -5.553739   -2.041320

      -----------------------------------------------------------      
     |                   =====================                   |     
     |                           x T B                           |     
     |                   =====================                   |     
     |                         S. Grimme                         |     
     |          Mulliken Center for Theoretical Chemistry        |     
     |                    University of Bonn                     |     
      -----------------------------------------------------------      

   * xtb version 6.7.1 (edcfbbe) compiled by 'albert@albert-system' on 2024-07-22

   xtb is free software: you can redistribute it and/or modify it under
   the terms of the GNU Lesser General Public License as published by
   the Free Software Foundation, either version 3 of the License, or
   (at your option) any later version.
   
   xtb is distributed in the hope that it will be useful,
   but WITHOUT ANY WARRANTY; without even the implied warranty of
   MERCHANTABILITY or FITNESS FOR A PARTICULAR PURPOSE.  See the
   GNU Lesser General Public License for more details.
   
   Cite this work as:
   * C. Bannwarth, E. Caldeweyher, S. Ehlert, A. Hansen, P. Pracht,
     J. Seibert, S. Spicher, S. Grimme, WIREs Comput. Mol. Sci., 2020, 11,
     e01493. DOI: 10.1002/wcms.1493
   
   for GFN2-xTB:
   * C. Bannwarth, S. Ehlert and S. Grimme., J. Chem. Theory Comput., 2019,
     15, 1652-1671. DOI: 10.1021/acs.jctc.8b01176
   for GFN1-xTB:
   * S. Grimme, C. Bannwarth, P. Shushkov, J. Chem. Theory Comput., 2017,
     13, 1989-2009. DOI: 10.1021/acs.jctc.7b00118
   for GFN0-xTB:
   * P. Pracht, E. Caldeweyher, S. Ehlert, S. Grimme, ChemRxiv, 2019, preprint.
     DOI: 10.26434/chemrxiv.8326202.v1
   for GFN-FF:
   * S. Spicher and S. Grimme, Angew. Chem. Int. Ed., 2020, 59, 15665-15673.
     DOI: 10.1002/anie.202004239
   
   for ALPB and GBSA implicit solvation:
   * S. Ehlert, M. Stahn, S. Spicher, S. Grimme, J. Chem. Theory Comput.,
     2021, 17, 4250-4261. DOI: 10.1021/acs.jctc.1c00471
   
   for ddCOSMO and CPCM-X implicit solvation:
   * M. Stahn, S. Ehlert, S. Grimme, J. Phys. Chem. A,
     2023, XX, XXXX-XXXX. DOI: 10.1021/acs.jpca.3c04382
   
   for DFT-D4:
   * E. Caldeweyher, C. Bannwarth and S. Grimme, J. Chem. Phys., 2017,
     147, 034112. DOI: 10.1063/1.4993215
   * E. Caldeweyher, S. Ehlert, A. Hansen, H. Neugebauer, S. Spicher,
     C. Bannwarth and S. Grimme, J. Chem. Phys., 2019, 150, 154122.
     DOI: 10.1063/1.5090222
   * E. Caldeweyher, J.-M. Mewes, S. Ehlert and S. Grimme, Phys. Chem. Chem. Phys.
     2020, 22, 8499-8512. DOI: 10.1039/D0CP00502A
   
   for sTDA-xTB:
   * S. Grimme and C. Bannwarth, J. Chem. Phys., 2016, 145, 054103.
     DOI: 10.1063/1.4959605
   
   in the mass-spec context:
   * V. Asgeirsson, C. Bauer and S. Grimme, Chem. Sci., 2017, 8, 4879.
     DOI: 10.1039/c7sc00601b
   * J. Koopman and S. Grimme, ACS Omega 2019, 4, 12, 15120-15133.
     DOI: 10.1021/acsomega.9b02011
   
   for metadynamics refer to:
   * S. Grimme, J. Chem. Theory Comput., 2019, 155, 2847-2862
     DOI: 10.1021/acs.jctc.9b00143
   
   for SPH calculations refer to:
   * S. Spicher and S. Grimme, J. Chem. Theory Comput., 2021, 17, 1701-1714
     DOI: 10.1021/acs.jctc.0c01306
   
   for ONIOM refer to:
   * C. Plett, A. Katbashev, S. Ehlert, S. Grimme, M. Bursch,
     Phys. Chem. Chem. Phys., 2023, 25, 17860-17868. DOI: 10.1039/D3CP02178E
   
   for DIPRO refer to:
   * J. Kohn, N. Gildemeister, S. Grimme, D. Fazzi, A. Hansen,
     J. Chem. Phys., 2023, just accepted.
   
   for PTB refer to:
   * S. Grimme, M. Mueller, A. Hansen, J. Chem. Phys., 2023, 158, 124111.
     DOI: 10.1063/5.0137838
   
   with help from (in alphabetical order)
   P. Atkinson, C. Bannwarth, F. Bohle, G. Brandenburg, E. Caldeweyher
   M. Checinski, S. Dohm, S. Ehlert, S. Ehrlich, I. Gerasimov, C. Hölzer
   A. Katbashev, J. Kohn, J. Koopman, C. Lavigne, S. Lehtola, F. März, M. Müller,
   F. Musil, H. Neugebauer, J. Pisarek, C. Plett, P. Pracht, F. Pultar,
   J. Seibert, P. Shushkov, S. Spicher, M. Stahn, M. Steiner, T. Strunk,
   J. Stückrath, T. Rose, and J. Unsleber
   
 * started run on 2025/11/20 at 22:30:52.388     
   ID    Z sym.   atoms
    1   40 Zr     1
    2   17 Cl     2, 3
    3    7 N      4
    4    6 C      5-21
    5    1 H      22-36

           -------------------------------------------------
          |                Calculation Setup                |
           -------------------------------------------------

          program call               : otool_xtb final_relax_1_XTB.xyz --grad -c 0 -u 0 -P 1 --namespace final_relax_1 --input final_relax_1_XTB.input.tmp --acc 0.200000
          hostname                   : saraswati
          calculation namespace      : final_relax_1
          coordinate file            : final_relax_1_XTB.xyz
          omp threads                :                     1


           -------------------------------------------------
          |                 G F N 2 - x T B                 |
           -------------------------------------------------

        Reference                      10.1021/acs.jctc.8b01176
      * Hamiltonian:
        H0-scaling (s, p, d)           1.850000    2.230000    2.230000
        zeta-weighting                 0.500000
      * Dispersion:
        s8                             2.700000
        a1                             0.520000
        a2                             5.000000
        s9                             5.000000
      * Repulsion:
        kExp                           1.500000    1.000000
        rExp                           1.000000
      * Coulomb:
        alpha                          2.000000
        third order                    shell-resolved
        anisotropic                    true
        a3                             3.000000
        a5                             4.000000
        cn-shift                       1.200000
        cn-exp                         4.000000
        max-rad                        5.000000

q/qsh data taken from xtbrestart
CAMM data taken from xtbrestart

          ...................................................
          :                      SETUP                      :
          :.................................................:
          :  # basis functions                 117          :
          :  # atomic orbitals                 114          :
          :  # shells                           60          :
          :  # electrons                       106          :
          :  max. iterations                   250          :
          :  Hamiltonian                  GFN2-xTB          :
          :  restarted?                       true          :
          :  GBSA solvation                  false          :
          :  PC potential                    false          :
          :  electronic temp.          300.0000000     K    :
          :  accuracy                    0.2000000          :
          :  -> integral cutoff          0.3198970E+02      :
          :  -> integral neglect         0.2000000E-08      :
          :  -> SCF convergence          0.2000000E-06 Eh   :
          :  -> wf. convergence          0.2000000E-04 e    :
          :  Broyden damping             0.4000000          :
          :  net charge                          0          :
          :  unpaired electrons                  0          :
          ...................................................

 iter      E             dE          RMSdq      gap      omega  full diag
   1    -58.7490539 -0.587491E+02  0.580E-03    2.21       0.0  T
   2    -58.7490539 -0.419273E-07  0.331E-03    2.21       5.0  T
   3    -58.7490539  0.467440E-07  0.211E-03    2.21       7.9  T
   4    -58.7490540 -0.866817E-07  0.282E-04    2.21      59.1  T
   5    -58.7490540 -0.110201E-08  0.200E-04    2.21      83.4  T
   6    -58.7490540 -0.306862E-09  0.132E-04    2.21     126.0  T

   *** convergence criteria satisfied after 6 iterations ***

         #    Occupation            Energy/Eh            Energy/eV
      -------------------------------------------------------------
         1        2.0000           -1.0536641             -28.6717
       ...           ...                  ...                  ...
        47        2.0000           -0.3949626             -10.7475
        48        2.0000           -0.3912952             -10.6477
        49        2.0000           -0.3833446             -10.4313
        50        2.0000           -0.3780702             -10.2878
        51        2.0000           -0.3676382             -10.0039
        52        2.0000           -0.3652122              -9.9379
        53        2.0000           -0.3622049              -9.8561 (HOMO)
        54                         -0.2808817              -7.6432 (LUMO)
        55                         -0.2728453              -7.4245
        56                         -0.2706020              -7.3635
        57                         -0.2697583              -7.3405
        58                         -0.2602969              -7.0830
       ...                                ...                  ...
       114                          2.4709056              67.2368
      -------------------------------------------------------------
                  HL-Gap            0.0813232 Eh            2.2129 eV
             Fermi-level           -0.3215433 Eh           -8.7496 eV

 SCC (total)                   0 d,  0 h,  0 min,  0.088 sec
 SCC setup                      ...        0 min,  0.001 sec (  0.728%)
 Dispersion                     ...        0 min,  0.001 sec (  1.040%)
 classical contributions        ...        0 min,  0.000 sec (  0.189%)
 integral evaluation            ...        0 min,  0.024 sec ( 27.810%)
 iterations                     ...        0 min,  0.023 sec ( 25.720%)
 molecular gradient             ...        0 min,  0.039 sec ( 44.203%)
 printout                       ...        0 min,  0.000 sec (  0.273%)

         :::::::::::::::::::::::::::::::::::::::::::::::::::::
         ::                     SUMMARY                     ::
         :::::::::::::::::::::::::::::::::::::::::::::::::::::
         :: total energy             -57.917862256098 Eh    ::
         :: gradient norm              0.000671117300 Eh/a0 ::
         :: HOMO-LUMO gap              2.212917697672 eV    ::
         ::.................................................::
         :: SCC energy               -58.747859363632 Eh    ::
         :: -> isotropic ES            0.069790809710 Eh    ::
         :: -> anisotropic ES         -0.006154743875 Eh    ::
         :: -> anisotropic XC          0.025349492943 Eh    ::
         :: -> dispersion             -0.049849251854 Eh    ::
         :: repulsion energy           0.829997107535 Eh    ::
         :: add. restraining           0.000000000000 Eh    ::
         :: total charge               0.000000000000 e     ::
         :::::::::::::::::::::::::::::::::::::::::::::::::::::


Property printout bound to 'properties.out'

           -------------------------------------------------
          | TOTAL ENERGY              -57.917862256098 Eh   |
          | GRADIENT NORM               0.000671117300 Eh/α |
          | HOMO-LUMO GAP               2.212917697672 eV   |
           -------------------------------------------------

------------------------------------------------------------------------
 * finished run on 2025/11/20 at 22:30:52.524     
------------------------------------------------------------------------
 total:
 * wall-time:     0 d,  0 h,  0 min,  0.134 sec
 *  cpu-time:     0 d,  0 h,  0 min,  0.129 sec
 * ratio c/w:     0.957 speedup
 SCF:
 * wall-time:     0 d,  0 h,  0 min,  0.088 sec
 *  cpu-time:     0 d,  0 h,  0 min,  0.087 sec
 * ratio c/w:     0.989 speedup


-------------------------   --------------------
FINAL SINGLE POINT ENERGY       -57.917862256100
-------------------------   --------------------


-------------
DIPOLE MOMENT
-------------
                                X             Y             Z
Total Dipole Moment    :     -0.94400      -0.06200       3.33800
                        -----------------------------------------
Magnitude (a.u.)       :      3.46947
Magnitude (Debye)      :      8.81869

                                *** OPTIMIZATION RUN DONE ***


--------------------------------
SUGGESTED CITATIONS FOR THIS RUN
--------------------------------

Below you find a list of papers that are relevant to this ORCA run
We neither can nor want to force you to cite these papers, but we appreciate if you do
You receive ORCA, which is the product of decades of hard work by many enthusiastic individuals, for free
The only thing we kindly ask in return is that you cite our papers,
We deeply appreciate it, if you show your appreciation for ORCA by not just citing the generic ORCA reference.

Please note that relegating all ORCA citations to the supporting information does *not* help us.
SI sections are not indexed - citations you put there will not count into any citation statistics
But we need these citations in order to attract the funding resources that allow us to do what we are doing

Therefore, if you are a happy ORCA user, please consider citing a few of the papers listed below in the main body of your paper

In addition to the list printed below, the program has created the file final_relax_1.bibtex that contains the list in bibtex format
You can import this file easily into all common literature databanks and citation aid programs


List of essential papers. We consider these as the minimum necessary citations

  1. Bannwarth,C.; Ehlert,S.; Grimme,S.
     GFN2-xTB—An Accurate and Broadly Parametrized Self-Consistent Tight-Binding Quantum Chemical Method with Multipole Electrostatics and Density-Dependent Dispersion Contributions
     J. Chem. Theory Comput., 2019 15(3)1652-1671
     doi.org/10.1021/acs.jctc.8b01176
  2. Neese,F.
     Software update: the ORCA program system, version 5.0
     WIRES Comput. Molec. Sci., 2022 12(1)e1606
     doi.org/10.1002/wcms.1606

List of papers to cite with high priority. The work reported in these papers was absolutely
necessary for this run to complete.
Our perspective: the developers of density functionals and basis sets usually get cited in chemistry papers
Good! But without the algorithms to do something with them, the functionals or basis sets would not do anything.
Hence, in our opinion, the algorithm design and method developments papers are equally worthy of getting cited

  1. Bannwarth,C.; Caldeweyher,E.; Ehlert,S.; Hansen,A.; Pracht,P.; Seibert,J.; Spicher,S.; Grimme,S.
     Extended tight-binding quantum chemistry methods
     WIRES Comput. Molec. Sci., 2020 11(2)e1493
     doi.org/10.1002/wcms.1493

List of suggested additional citations. These are papers that are important in the 'surrounding' of 
of this run, or papers that preceded the highly important papers. If you like your results we are grateful for a citation.

  1. Neese,F.
     The ORCA program system
     WIRES Comput. Molec. Sci., 2012 2(1)73-78
     doi.org/10.1002/wcms.81
  2. Neese,F.
     Software update: the ORCA program system, version 4.0
     WIRES Comput. Molec. Sci., 2018 8(1)1-6
     doi.org/10.1002/wcms.1327
  3. Neese,F.; Wennmohs,F.; Becker,U.; Riplinger,C.
     The ORCA quantum chemistry program package
     J. Chem. Phys., 2020 152 Art. No. L224108
     doi.org/10.1063/5.0004608

List of optional additional citations

  1. Neese,F.
     Approximate second-order SCF convergence for spin unrestricted wavefunctions
     Chem. Phys. Lett., 2000 325(1-3)93-98
     doi.org/10.1016/s0009-2614(00)00662-x

Timings for individual modules:

Sum of individual times          ...       16.256 sec (=   0.271 min)
Geometry relaxation              ...        9.500 sec (=   0.158 min)  58.4 %
XTB module                       ...        6.755 sec (=   0.113 min)  41.6 %
                             ****ORCA TERMINATED NORMALLY****
TOTAL RUN TIME: 0 days 0 hours 0 minutes 17 seconds 471 msec
