 Entering Gaussian System, Link 0=g09
 Input=final_relax_1.com
 Output=final_relax_1.log
 Initial command:
 /appl/g09.shchoi/G09Files/g09/l1.exe "/home/rxn_grp/scratch/metallogen_test/Gau-3288998.inp" -scrdir="/home/rxn_grp/scratch/metallogen_test/"
 Entering Link 1 = /appl/g09.shchoi/G09Files/g09/l1.exe PID=   3289000.
  
 Copyright (c) 1988,1990,1992,1993,1995,1998,2003,2009,2013,
            Gaussian, Inc.  All Rights Reserved.
  
 This is part of the Gaussian(R) 09 program.  It is based on
 the Gaussian(R) 03 system (copyright 2003, Gaussian, Inc.),
 the Gaussian(R) 98 system (copyright 1998, Gaussian, Inc.),
 the Gaussian(R) 94 system (copyright 1995, Gaussian, Inc.),
 the Gaussian 92(TM) system (copyright 1992, Gaussian, Inc.),
 the Gaussian 90(TM) system (copyright 1990, Gaussian, Inc.),
 the Gaussian 88(TM) system (copyright 1988, Gaussian, Inc.),
 the Gaussian 86(TM) system (copyright 1986, Carnegie Mellon
 University), and the Gaussian 82(TM) system (copyright 1983,
 Carnegie Mellon University). Gaussian is a federally registered
 trademark of Gaussian, Inc.
  
 This software contains proprietary and confidential information,
 including trade secrets, belonging to Gaussian, Inc.
  
 This software is provided under written license and may be
 used, copied, transmitted, or stored only in accord with that
 written license.
  
 The following legend is applicable only to US Government
 contracts under FAR:
  
                    RESTRICTED RIGHTS LEGEND
  
 Use, reproduction and disclosure by the US Government is
 subject to restrictions as set forth in subparagraphs (a)
 and (c) of the Commercial Computer Software - Restricted
 Rights clause in FAR 52.227-19.
  
 Gaussian, Inc.
 340 Quinnipiac St., Bldg. 40, Wallingford CT 06492
  
  
 ---------------------------------------------------------------
 Warning -- This program may not be used in any manner that
 competes with the business of Gaussian, Inc. or will provide
 assistance to any competitor of Gaussian, Inc.  The licensee
 of this program is prohibited from giving any competitor of
 Gaussian, Inc. access to this program.  By using this program,
 the user acknowledges that Gaussian, Inc. is engaged in the
 business of creating and licensing software in the field of
 computational chemistry and represents and warrants to the
 licensee that it is not a competitor of Gaussian, Inc. and that
 it will not use this program in any manner prohibited above.
 ---------------------------------------------------------------
  

 Cite this work as:
 Gaussian 09, Revision D.01,
 M. J. Frisch, G. W. Trucks, H. B. Schlegel, G. E. Scuseria, 
 M. A. Robb, J. R. Cheeseman, G. Scalmani, V. Barone, B. Mennucci, 
 G. A. Petersson, H. Nakatsuji, M. Caricato, X. Li, H. P. Hratchian, 
 A. F. Izmaylov, J. Bloino, G. Zheng, J. L. Sonnenberg, M. Hada, 
 M. Ehara, K. Toyota, R. Fukuda, J. Hasegawa, M. Ishida, T. Nakajima, 
 Y. Honda, O. Kitao, H. Nakai, T. Vreven, J. A. Montgomery, Jr., 
 J. E. Peralta, F. Ogliaro, M. Bearpark, J. J. Heyd, E. Brothers, 
 K. N. Kudin, V. N. Staroverov, T. Keith, R. Kobayashi, J. Normand, 
 K. Raghavachari, A. Rendell, J. C. Burant, S. S. Iyengar, J. Tomasi, 
 M. Cossi, N. Rega, J. M. Millam, M. Klene, J. E. Knox, J. B. Cross, 
 V. Bakken, C. Adamo, J. Jaramillo, R. Gomperts, R. E. Stratmann, 
 O. Yazyev, A. J. Austin, R. Cammi, C. Pomelli, J. W. Ochterski, 
 R. L. Martin, K. Morokuma, V. G. Zakrzewski, G. A. Voth, 
 P. Salvador, J. J. Dannenberg, S. Dapprich, A. D. Daniels, 
 O. Farkas, J. B. Foresman, J. V. Ortiz, J. Cioslowski, 
 and D. J. Fox, Gaussian, Inc., Wallingford CT, 2013.
 
 ******************************************
 Gaussian 09:  ES64L-G09RevD.01 24-Apr-2013
                15-Sep-2025 
 ******************************************
 -------------------------------------------------------------------
 #p external='/home/rxn_grp/programs/xtb-gaussian' /sdd opt(nomicro)
 -------------------------------------------------------------------
 1/14=-1,18=20,19=15,26=1,38=1/1,3;
 2/9=110,12=2,17=6,18=5,40=1/2;
 3/5=17,6=7,11=9,16=1,25=1,30=1,41=9900000,43=2,71=1/1;
 4/20=17,22=1,24=3,113=1,114=1/2;
 6/7=2,8=2,9=2,10=2/1;
 7/44=-1/16;
 1/14=-1,18=20,19=15,26=1/3(2);
 2/9=110/2;
 99//99;
 2/9=110/2;
 3/5=17,6=7,11=9,16=1,25=1,30=1,41=9900000,43=2,71=1/1;
 4/16=2,20=17,22=1,24=3,113=1,114=1/2;
 7/44=-1/16;
 1/14=-1,18=20,19=15,26=1/3(-4);
 2/9=110/2;
 6/7=2,8=2,9=2,10=2/1;
 99//99;
 Leave Link    1 at Mon Sep 15 19:06:07 2025, MaxMem=           0 cpu:         0.0
 (Enter /appl/g09.shchoi/G09Files/g09/l101.exe)
 -
 R
 -
 Symbolic Z-matrix:
 Charge =  0 Multiplicity = 1
 V                     0.        0.        0. 
 Cl                    1.785     0.        0. 
 N                     0.00428  -0.00125   1.57053 
 N                    -0.00352  -0.00511  -1.56799 
 O                    -0.7665    1.32762   0. 
 O                    -0.7665   -1.32762   0. 
 C                     0.46238   1.0759    2.28948 
 C                     0.62162   1.02335   3.72479 
 C                     0.32763  -0.08283   4.42086 
 C                    -0.15384  -1.22501   3.69907 
 C                    -0.28308  -1.07668   2.23489 
 C                     0.87101  -0.78219  -2.32693 
 C                     0.71094  -1.01226  -3.75144 
 C                    -0.29091  -0.45825  -4.44547 
 C                    -1.20755   0.3768   -3.72753 
 C                    -0.9719    0.53704  -2.26932 
 H                     0.70567   1.98202   1.74551 
 H                     0.98928   1.91563   4.22053 
 H                     0.44252  -0.13499   5.49665 
 H                    -0.41508  -2.15521   4.17835 
 H                    -0.65379  -1.96381   1.69647 
 H                     1.71855  -1.22148  -1.81356 
 H                     1.43593  -1.65108  -4.24768 
 H                    -0.4218   -0.62199  -5.51034 
 H                    -2.04054   0.86556  -4.21046 
 H                    -1.70214   1.17799  -1.75109 
 
 NAtoms=     26 NQM=       26 NQMF=       0 NMMI=      0 NMMIF=      0
                NMic=       0 NMicF=      0.
                    Isotopes and Nuclear Properties:
 (Nuclear quadrupole moments (NQMom) in fm**2, nuclear magnetic moments (NMagM)
  in nuclear magnetons)

  Atom         1           2           3           4           5           6           7           8           9          10
 IAtWgt=          51          35          14          14          16          16          12          12          12          12
 AtmWgt=  50.9439625  34.9688527  14.0030740  14.0030740  15.9949146  15.9949146  12.0000000  12.0000000  12.0000000  12.0000000
 NucSpn=           7           3           2           2           0           0           0           0           0           0
 AtZEff=   0.0000000   0.0000000   0.0000000   0.0000000   0.0000000   0.0000000   0.0000000   0.0000000   0.0000000   0.0000000
 NQMom=   -5.2000000  -8.1650000   2.0440000   2.0440000   0.0000000   0.0000000   0.0000000   0.0000000   0.0000000   0.0000000
 NMagM=    5.1514000   0.8218740   0.4037610   0.4037610   0.0000000   0.0000000   0.0000000   0.0000000   0.0000000   0.0000000
 AtZNuc=  23.0000000  17.0000000   7.0000000   7.0000000   8.0000000   8.0000000   6.0000000   6.0000000   6.0000000   6.0000000

  Atom        11          12          13          14          15          16          17          18          19          20
 IAtWgt=          12          12          12          12          12          12           1           1           1           1
 AtmWgt=  12.0000000  12.0000000  12.0000000  12.0000000  12.0000000  12.0000000   1.0078250   1.0078250   1.0078250   1.0078250
 NucSpn=           0           0           0           0           0           0           1           1           1           1
 AtZEff=   0.0000000   0.0000000   0.0000000   0.0000000   0.0000000   0.0000000   0.0000000   0.0000000   0.0000000   0.0000000
 NQMom=    0.0000000   0.0000000   0.0000000   0.0000000   0.0000000   0.0000000   0.0000000   0.0000000   0.0000000   0.0000000
 NMagM=    0.0000000   0.0000000   0.0000000   0.0000000   0.0000000   0.0000000   2.7928460   2.7928460   2.7928460   2.7928460
 AtZNuc=   6.0000000   6.0000000   6.0000000   6.0000000   6.0000000   6.0000000   1.0000000   1.0000000   1.0000000   1.0000000

  Atom        21          22          23          24          25          26
 IAtWgt=           1           1           1           1           1           1
 AtmWgt=   1.0078250   1.0078250   1.0078250   1.0078250   1.0078250   1.0078250
 NucSpn=           1           1           1           1           1           1
 AtZEff=   0.0000000   0.0000000   0.0000000   0.0000000   0.0000000   0.0000000
 NQMom=    0.0000000   0.0000000   0.0000000   0.0000000   0.0000000   0.0000000
 NMagM=    2.7928460   2.7928460   2.7928460   2.7928460   2.7928460   2.7928460
 AtZNuc=   1.0000000   1.0000000   1.0000000   1.0000000   1.0000000   1.0000000
 Leave Link  101 at Mon Sep 15 19:06:07 2025, MaxMem=    33554432 cpu:         0.0
 (Enter /appl/g09.shchoi/G09Files/g09/l103.exe)

 GradGradGradGradGradGradGradGradGradGradGradGradGradGradGradGradGradGrad
 Berny optimization.
 Initialization pass.
                           ----------------------------
                           !    Initial Parameters    !
                           ! (Angstroms and Degrees)  !
 --------------------------                            --------------------------
 ! Name  Definition              Value          Derivative Info.                !
 --------------------------------------------------------------------------------
 ! R1    R(1,2)                  1.785          estimate D2E/DX2                !
 ! R2    R(1,3)                  1.5705         estimate D2E/DX2                !
 ! R3    R(1,4)                  1.568          estimate D2E/DX2                !
 ! R4    R(1,5)                  1.533          estimate D2E/DX2                !
 ! R5    R(1,6)                  1.533          estimate D2E/DX2                !
 ! R6    R(3,7)                  1.3737         estimate D2E/DX2                !
 ! R7    R(3,11)                 1.2963         estimate D2E/DX2                !
 ! R8    R(4,12)                 1.3945         estimate D2E/DX2                !
 ! R9    R(4,16)                 1.3128         estimate D2E/DX2                !
 ! R10   R(7,8)                  1.4451         estimate D2E/DX2                !
 ! R11   R(7,17)                 1.0845         estimate D2E/DX2                !
 ! R12   R(8,9)                  1.3396         estimate D2E/DX2                !
 ! R13   R(8,18)                 1.0849         estimate D2E/DX2                !
 ! R14   R(9,10)                 1.4343         estimate D2E/DX2                !
 ! R15   R(9,19)                 1.0832         estimate D2E/DX2                !
 ! R16   R(10,11)                1.4773         estimate D2E/DX2                !
 ! R17   R(10,20)                1.0785         estimate D2E/DX2                !
 ! R18   R(11,21)                1.102          estimate D2E/DX2                !
 ! R19   R(12,13)                1.4518         estimate D2E/DX2                !
 ! R20   R(12,22)                1.0839         estimate D2E/DX2                !
 ! R21   R(13,14)                1.3388         estimate D2E/DX2                !
 ! R22   R(13,23)                1.0863         estimate D2E/DX2                !
 ! R23   R(14,15)                1.4328         estimate D2E/DX2                !
 ! R24   R(14,24)                1.0853         estimate D2E/DX2                !
 ! R25   R(15,16)                1.4858         estimate D2E/DX2                !
 ! R26   R(15,25)                1.0798         estimate D2E/DX2                !
 ! R27   R(16,26)                1.1012         estimate D2E/DX2                !
 ! A1    A(2,1,3)               89.844          estimate D2E/DX2                !
 ! A2    A(2,1,4)               90.1285         estimate D2E/DX2                !
 ! A3    A(2,1,5)              120.0            estimate D2E/DX2                !
 ! A4    A(2,1,6)              120.0            estimate D2E/DX2                !
 ! A5    A(3,1,5)               90.1176         estimate D2E/DX2                !
 ! A6    A(3,1,6)               90.0384         estimate D2E/DX2                !
 ! A7    A(4,1,5)               90.0974         estimate D2E/DX2                !
 ! A8    A(4,1,6)               89.7741         estimate D2E/DX2                !
 ! A9    A(5,1,6)              120.0            estimate D2E/DX2                !
 ! A10   A(1,3,7)              121.5775         estimate D2E/DX2                !
 ! A11   A(1,3,11)             120.8335         estimate D2E/DX2                !
 ! A12   A(7,3,11)             117.143          estimate D2E/DX2                !
 ! A13   A(1,4,12)             123.0002         estimate D2E/DX2                !
 ! A14   A(1,4,16)             122.311          estimate D2E/DX2                !
 ! A15   A(12,4,16)            113.7008         estimate D2E/DX2                !
 ! A16   A(3,7,8)              121.875          estimate D2E/DX2                !
 ! A17   A(3,7,17)             117.8692         estimate D2E/DX2                !
 ! A18   A(8,7,17)             120.2558         estimate D2E/DX2                !
 ! A19   A(7,8,9)              121.462          estimate D2E/DX2                !
 ! A20   A(7,8,18)             117.4694         estimate D2E/DX2                !
 ! A21   A(9,8,18)             121.0685         estimate D2E/DX2                !
 ! A22   A(8,9,10)             118.0172         estimate D2E/DX2                !
 ! A23   A(8,9,19)             122.1777         estimate D2E/DX2                !
 ! A24   A(10,9,19)            119.8051         estimate D2E/DX2                !
 ! A25   A(9,10,11)            116.6253         estimate D2E/DX2                !
 ! A26   A(9,10,20)            122.9887         estimate D2E/DX2                !
 ! A27   A(11,10,20)           120.3861         estimate D2E/DX2                !
 ! A28   A(3,11,10)            124.8774         estimate D2E/DX2                !
 ! A29   A(3,11,21)            119.4739         estimate D2E/DX2                !
 ! A30   A(10,11,21)           115.6487         estimate D2E/DX2                !
 ! A31   A(4,12,13)            123.5842         estimate D2E/DX2                !
 ! A32   A(4,12,22)            117.2863         estimate D2E/DX2                !
 ! A33   A(13,12,22)           119.1248         estimate D2E/DX2                !
 ! A34   A(12,13,14)           121.7078         estimate D2E/DX2                !
 ! A35   A(12,13,23)           117.8946         estimate D2E/DX2                !
 ! A36   A(14,13,23)           120.3973         estimate D2E/DX2                !
 ! A37   A(13,14,15)           117.3973         estimate D2E/DX2                !
 ! A38   A(13,14,24)           122.4431         estimate D2E/DX2                !
 ! A39   A(15,14,24)           120.1596         estimate D2E/DX2                !
 ! A40   A(14,15,16)           116.9467         estimate D2E/DX2                !
 ! A41   A(14,15,25)           122.223          estimate D2E/DX2                !
 ! A42   A(16,15,25)           120.828          estimate D2E/DX2                !
 ! A43   A(4,16,15)            126.6369         estimate D2E/DX2                !
 ! A44   A(4,16,26)            118.5611         estimate D2E/DX2                !
 ! A45   A(15,16,26)           114.8016         estimate D2E/DX2                !
 ! A46   L(3,1,4,2,-1)         179.9725         estimate D2E/DX2                !
 ! A47   L(3,1,4,2,-2)         179.7676         estimate D2E/DX2                !
 ! D1    D(2,1,3,7)             67.0598         estimate D2E/DX2                !
 ! D2    D(2,1,3,11)          -105.057          estimate D2E/DX2                !
 ! D3    D(5,1,3,7)            -52.94           estimate D2E/DX2                !
 ! D4    D(5,1,3,11)           134.9432         estimate D2E/DX2                !
 ! D5    D(6,1,3,7)           -172.9402         estimate D2E/DX2                !
 ! D6    D(6,1,3,11)            14.943          estimate D2E/DX2                !
 ! D7    D(7,3,4,12)           108.5527         estimate D2E/DX2                !
 ! D8    D(7,3,4,16)           -83.6506         estimate D2E/DX2                !
 ! D9    D(11,3,4,12)          -63.5026         estimate D2E/DX2                !
 ! D10   D(11,3,4,16)          104.2941         estimate D2E/DX2                !
 ! D11   D(2,1,4,12)            41.4774         estimate D2E/DX2                !
 ! D12   D(2,1,4,16)          -150.6154         estimate D2E/DX2                !
 ! D13   D(5,1,4,12)           161.4778         estimate D2E/DX2                !
 ! D14   D(5,1,4,16)           -30.615          estimate D2E/DX2                !
 ! D15   D(6,1,4,12)           -78.5223         estimate D2E/DX2                !
 ! D16   D(6,1,4,16)            89.3848         estimate D2E/DX2                !
 ! D17   D(1,3,7,8)           -172.3627         estimate D2E/DX2                !
 ! D18   D(1,3,7,17)             7.6475         estimate D2E/DX2                !
 ! D19   D(11,3,7,8)             0.0323         estimate D2E/DX2                !
 ! D20   D(11,3,7,17)         -179.9575         estimate D2E/DX2                !
 ! D21   D(1,3,11,10)          172.4529         estimate D2E/DX2                !
 ! D22   D(1,3,11,21)           -7.5472         estimate D2E/DX2                !
 ! D23   D(7,3,11,10)           -0.002          estimate D2E/DX2                !
 ! D24   D(7,3,11,21)          179.9979         estimate D2E/DX2                !
 ! D25   D(1,4,12,13)          166.9649         estimate D2E/DX2                !
 ! D26   D(1,4,12,22)          -13.8265         estimate D2E/DX2                !
 ! D27   D(16,4,12,13)          -1.8857         estimate D2E/DX2                !
 ! D28   D(16,4,12,22)         177.3228         estimate D2E/DX2                !
 ! D29   D(1,4,16,15)         -167.9203         estimate D2E/DX2                !
 ! D30   D(1,4,16,26)           11.8214         estimate D2E/DX2                !
 ! D31   D(12,4,16,15)           1.0171         estimate D2E/DX2                !
 ! D32   D(12,4,16,26)        -179.2412         estimate D2E/DX2                !
 ! D33   D(3,7,8,9)             -0.0332         estimate D2E/DX2                !
 ! D34   D(3,7,8,18)           179.9718         estimate D2E/DX2                !
 ! D35   D(17,7,8,9)           179.9564         estimate D2E/DX2                !
 ! D36   D(17,7,8,18)           -0.0386         estimate D2E/DX2                !
 ! D37   D(7,8,9,10)             0.0016         estimate D2E/DX2                !
 ! D38   D(7,8,9,19)          -179.9952         estimate D2E/DX2                !
 ! D39   D(18,8,9,10)          179.9964         estimate D2E/DX2                !
 ! D40   D(18,8,9,19)           -0.0004         estimate D2E/DX2                !
 ! D41   D(8,9,10,11)            0.0261         estimate D2E/DX2                !
 ! D42   D(8,9,10,20)         -179.9449         estimate D2E/DX2                !
 ! D43   D(19,9,10,11)        -179.9771         estimate D2E/DX2                !
 ! D44   D(19,9,10,20)           0.052          estimate D2E/DX2                !
 ! D45   D(9,10,11,3)           -0.0276         estimate D2E/DX2                !
 ! D46   D(9,10,11,21)         179.9725         estimate D2E/DX2                !
 ! D47   D(20,10,11,3)         179.9441         estimate D2E/DX2                !
 ! D48   D(20,10,11,21)         -0.0558         estimate D2E/DX2                !
 ! D49   D(4,12,13,14)           1.4724         estimate D2E/DX2                !
 ! D50   D(4,12,13,23)        -178.7294         estimate D2E/DX2                !
 ! D51   D(22,12,13,14)       -177.7224         estimate D2E/DX2                !
 ! D52   D(22,12,13,23)          2.0758         estimate D2E/DX2                !
 ! D53   D(12,13,14,15)          0.0013         estimate D2E/DX2                !
 ! D54   D(12,13,14,24)        179.9931         estimate D2E/DX2                !
 ! D55   D(23,13,14,15)       -179.7919         estimate D2E/DX2                !
 ! D56   D(23,13,14,24)          0.1999         estimate D2E/DX2                !
 ! D57   D(13,14,15,16)         -0.8106         estimate D2E/DX2                !
 ! D58   D(13,14,15,25)        179.7354         estimate D2E/DX2                !
 ! D59   D(24,14,15,16)        179.1973         estimate D2E/DX2                !
 ! D60   D(24,14,15,25)         -0.2566         estimate D2E/DX2                !
 ! D61   D(14,15,16,4)           0.2972         estimate D2E/DX2                !
 ! D62   D(14,15,16,26)       -179.4529         estimate D2E/DX2                !
 ! D63   D(25,15,16,4)         179.7592         estimate D2E/DX2                !
 ! D64   D(25,15,16,26)          0.0091         estimate D2E/DX2                !
 --------------------------------------------------------------------------------
 Trust Radius=3.00D-01 FncErr=1.00D-07 GrdErr=1.00D-07
 Number of steps in this run=    148 maximum allowed number of steps=    156.
 GradGradGradGradGradGradGradGradGradGradGradGradGradGradGradGradGradGrad

 Leave Link  103 at Mon Sep 15 19:06:07 2025, MaxMem=    33554432 cpu:         0.0
 (Enter /appl/g09.shchoi/G09Files/g09/l202.exe)
                          Input orientation:                          
 ---------------------------------------------------------------------
 Center     Atomic      Atomic             Coordinates (Angstroms)
 Number     Number       Type             X           Y           Z
 ---------------------------------------------------------------------
      1         23           0        0.000000    0.000000    0.000000
      2         17           0        1.785000    0.000000    0.000000
      3          7           0        0.004276   -0.001254    1.570529
      4          7           0       -0.003517   -0.005108   -1.567988
      5          8           0       -0.766500    1.327617    0.000000
      6          8           0       -0.766500   -1.327617    0.000000
      7          6           0        0.462375    1.075904    2.289477
      8          6           0        0.621625    1.023350    3.724795
      9          6           0        0.327629   -0.082833    4.420859
     10          6           0       -0.153837   -1.225007    3.699069
     11          6           0       -0.283078   -1.076681    2.234885
     12          6           0        0.871009   -0.782193   -2.326931
     13          6           0        0.710938   -1.012260   -3.751440
     14          6           0       -0.290913   -0.458247   -4.445472
     15          6           0       -1.207546    0.376797   -3.727530
     16          6           0       -0.971902    0.537039   -2.269323
     17          1           0        0.705674    1.982017    1.745506
     18          1           0        0.989275    1.915629    4.220533
     19          1           0        0.442520   -0.134994    5.496648
     20          1           0       -0.415085   -2.155208    4.178347
     21          1           0       -0.653792   -1.963807    1.696469
     22          1           0        1.718547   -1.221481   -1.813556
     23          1           0        1.435933   -1.651081   -4.247681
     24          1           0       -0.421804   -0.621992   -5.510336
     25          1           0       -2.040538    0.865562   -4.210460
     26          1           0       -1.702139    1.177991   -1.751088
 ---------------------------------------------------------------------
                    Distance matrix (angstroms):
                    1          2          3          4          5
     1  V    0.000000
     2  Cl   1.785000   0.000000
     3  N    1.570536   2.374351   0.000000
     4  N    1.568000   2.378530   3.138529   0.000000
     5  O    1.533000   2.876233   2.196942   2.194740   0.000000
     6  O    1.533000   2.876233   2.195426   2.188552   2.655234
     7  C    2.571588   2.854577   1.373685   4.033073   2.610594
     8  C    3.912513   4.034202   2.464101   5.427898   3.986673
     9  C    4.433756   4.655619   2.869772   5.998498   4.767649
    10  C    3.899669   4.352337   2.460335   5.408570   4.535896
    11  C    2.496816   3.229691   1.296336   3.960842   3.317990
    12  C    2.604821   2.619507   4.068328   1.394508   3.542223
    13  C    3.950115   4.031325   5.463046   2.508439   4.661668
    14  C    4.478486   4.927639   6.040550   2.927088   4.814324
    15  C    3.936321   4.794975   5.448015   2.501832   3.872087
    16  C    2.526427   3.610921   3.998394   1.312846   2.411852
    17  H    2.733708   2.853091   2.110909   3.928213   2.375358
    18  H    4.739325   4.702734   3.415726   6.179145   4.608840
    19  H    5.516084   5.659825   3.952765   7.079894   5.814989
    20  H    4.719725   5.190749   3.408239   6.149202   5.450885
    21  H    2.676189   3.561215   2.073772   3.862128   3.704616
    22  H    2.781079   2.187559   3.984935   2.122585   3.995290
    23  H    4.778155   4.570636   6.214752   3.458612   5.636146
    24  H    5.561348   5.968305   7.120781   4.012184   5.855219
    25  H    4.758253   5.754295   6.192937   3.448215   4.423194
    26  H    2.711319   4.076041   3.916071   2.078116   1.991009
                    6          7          8          9         10
     6  O    0.000000
     7  C    3.539598   0.000000
     8  C    4.618228   1.445081   0.000000
     9  C    4.721292   2.429736   1.339619   0.000000
    10  C    3.750866   2.767825   2.378468   1.434347   0.000000
    11  C    2.300300   2.278663   2.729184   2.477736   1.477341
    12  C    2.897160   4.993069   6.320251   6.805662   6.128545
    13  C    4.044203   6.396475   7.748921   8.233908   7.503545
    14  C    4.554581   6.948424   8.353509   8.895805   8.181702
    15  C    4.122382   6.283452   7.700717   8.304473   7.670101
    16  C    2.944310   4.809386   6.221357   6.843359   6.276603
    17  H    4.020916   1.084499   2.200838   3.400593   3.852293
    18  H    5.604845   2.170654   1.084936   2.114653   3.382635
    19  H    5.753018   3.428208   2.124453   1.083163   2.185191
    20  H    4.273989   3.844197   3.373974   2.214762   1.078533
    21  H    1.815337   3.292010   3.829347   3.453049   2.192302
    22  H    3.078263   4.867322   6.075839   6.488381   5.821929
    23  H    4.795637   7.149735   8.448435   8.878701   8.115402
    24  H    5.566015   8.031296   9.438407   9.974015   9.233015
    25  H    4.915403   6.968357   8.371396   9.000408   8.395878
    26  H    3.196843   4.584944   5.950554   6.618351   6.154336
                   11         12         13         14         15
    11  C    0.000000
    12  C    4.714744   0.000000
    13  C    6.068634   1.451819   0.000000
    14  C    6.708926   2.437871   1.338774   0.000000
    15  C    6.206258   2.761399   2.368677   1.432813   0.000000
    16  C    4.833888   2.267160   2.725610   2.487963   1.485790
    17  H    3.251578   4.924728   6.259564   6.728765   6.015918
    18  H    3.809934   7.082480   8.497197   9.076002   8.388429
    19  H    3.471651   7.861989   9.293481   9.974375   9.384568
    20  H    2.226587   6.771843   8.090475   8.790071   8.339181
    21  H    1.101959   4.461948   5.696283   6.334179   5.933366
    22  H    4.518556   1.083904   2.194184   3.398152   3.844452
    23  H    6.731167   2.182518   1.086262   2.108073   3.372065
    24  H    7.759797   3.439636   2.128175   1.085302   2.189376
    25  H    6.957259   3.839256   3.362668   2.206556   1.079810
    26  H    4.794295   3.285576   3.823814   3.453771   2.189259
                   16         17         18         19         20
    16  C    0.000000
    17  H    4.584875   0.000000
    18  H    6.918451   2.492106   0.000000
    19  H    7.922281   4.315327   2.476381   0.000000
    20  H    7.009329   4.928635   4.306474   2.560209   0.000000
    21  H    4.699248   4.173737   4.911272   4.357502   2.500667
    22  H    3.246326   4.894408   6.839848   7.499852   6.428618
    23  H    3.807813   7.046345   9.199542   9.911475   8.641665
    24  H    3.485703   7.790977  10.154825  11.051603   9.809250
    25  H    2.240072   6.652946   9.020202  10.069490   9.063070
    26  H    1.101196   4.320902   6.591516   7.671582   6.922783
                   21         22         23         24         25
    21  H    0.000000
    22  H    4.301082   0.000000
    23  H    6.308539   2.487850   0.000000
    24  H    7.334325   4.313546   2.470730   0.000000
    25  H    6.694789   4.922562   4.291937   2.553976   0.000000
    26  H    4.780751   4.178811   4.907557   4.360177   2.502126
                   26
    26  H    0.000000
 Stoichiometry    C10H10ClN2O2V
 Framework group  C1[X(C10H10ClN2O2V)]
 Deg. of freedom    72
 Full point group                 C1      NOp   1
 Largest Abelian subgroup         C1      NOp   1
 Largest concise Abelian subgroup C1      NOp   1
                         Standard orientation:                         
 ---------------------------------------------------------------------
 Center     Atomic      Atomic             Coordinates (Angstroms)
 Number     Number       Type             X           Y           Z
 ---------------------------------------------------------------------
      1         23           0       -0.001997   -0.157076   -0.003880
      2         17           0       -0.119984    1.381455   -0.901223
      3          7           0       -1.568252   -0.213049    0.097586
      4          7           0        1.561909   -0.097330   -0.100078
      5          8           0       -0.000418   -1.488963   -0.762935
      6          8           0        0.097754   -0.146517    1.525835
      7          6           0       -2.355241   -0.390397   -1.014262
      8          6           0       -3.795019   -0.281667   -0.955310
      9          6           0       -4.428752   -0.002521    0.191442
     10          6           0       -3.634980    0.187668    1.370893
     11          6           0       -2.171944    0.057490    1.212418
     12          6           0        2.289598    1.078461    0.080573
     13          6           0        3.729103    1.111497    0.266355
     14          6           0        4.466879   -0.005478    0.247137
     15          6           0        3.780714   -1.245292    0.035018
     16          6           0        2.305195   -1.179181   -0.126368
     17          1           0       -1.862416   -0.617927   -1.953140
     18          1           0       -4.346625   -0.434935   -1.876898
     19          1           0       -5.507116    0.081579    0.248881
     20          1           0       -4.061221    0.414389    2.335335
     21          1           0       -1.577770    0.207150    2.128318
     22          1           0        1.737918    2.011361    0.066680
     23          1           0        4.199616    2.078414    0.420146
     24          1           0        5.543391    0.005370    0.384562
     25          1           0        4.299245   -2.191839    0.000937
     26          1           0        1.813018   -2.152539   -0.277925
 ---------------------------------------------------------------------
 Rotational constants (GHZ):      1.4458007      0.2859438      0.2805401
 Leave Link  202 at Mon Sep 15 19:06:07 2025, MaxMem=    33554432 cpu:         0.0
 (Enter /appl/g09.shchoi/G09Files/g09/l301.exe)
 Standard basis: SDD (6D, 10F)
 Ernie: Thresh=  0.10000D-02 Tol=  0.10000D-05 Strict=F.
 There are   227 symmetry adapted cartesian basis functions of A   symmetry.
 There are   227 symmetry adapted basis functions of A   symmetry.
   227 basis functions,   487 primitive gaussians,   227 cartesian basis functions
    65 alpha electrons       65 beta electrons
       nuclear repulsion energy      1407.4157555971 Hartrees.



 Warning!  Cl atom    2 may be hypervalent but has no d functions.



 IExCor=    0 DFT=F Ex=HF Corr=None ExCW=0 ScaHFX=  1.000000
 ScaDFX=  1.000000  1.000000  1.000000  1.000000 ScalE2=  1.000000  1.000000
 IRadAn=      0 IRanWt=     -1 IRanGd=            0 ICorTp=0 IEmpDi=  4
 NAtoms=   26 NActive=   26 NUniq=   26 SFac= 1.00D+00 NAtFMM=   60 NAOKFM=F Big=F
 Integral buffers will be    131072 words long.
 Raffenetti 1 integral format.
 Two-electron integral symmetry is turned on.
 Leave Link  301 at Mon Sep 15 19:06:07 2025, MaxMem=    33554432 cpu:         0.0
 (Enter /appl/g09.shchoi/G09Files/g09/l402.exe)
 External calculation of energy and first derivatives.
 Running external command "/home/rxn_grp/programs/xtb-gaussian R"
         input file       "/home/rxn_grp/scratch/metallogen_test/Gau-3289000.EIn"
         output file      "/home/rxn_grp/scratch/metallogen_test/Gau-3289000.EOu"
         message file     "/home/rxn_grp/scratch/metallogen_test/Gau-3289000.EMs"
         fchk file        "/home/rxn_grp/scratch/metallogen_test/Gau-3289000.EFC"
         mat. el file     "/home/rxn_grp/scratch/metallogen_test/Gau-3289000.EUF"

 ExternalExternalExternalExternalExternalExternalExternalExternalExternalExternal
 Output from external command:
 "/home/rxn_grp/programs/xtb-gaussian R /home/rxn_grp/scratch/metallogen_test/Gau-3289000.EIn /home/rxn_grp/scratch/metallogen_test/Gau-3289000.EOu /home/rxn_grp/scratch/metallogen_test/Gau-3289000.EMs /home/rxn_grp/scratch/metallogen_test/Gau-3289000.EFC /home/rxn_grp/scratch/metallogen_test/Gau-3289000.EUF"
 normal termination of xtb
  
 ------- xtb command was ---------
 ?> xtb ./Gau-3289000.EIn  --grad --charge 0  >/dev/null 2>Gau-3289000.EMs
 ---------------------------------
              Control returned to Gaussian.
 ~~~~~~~~~~~~~~~~~~~~~~~~~~~~~~~~~~~~~~~~~~~~~~~~~~~~~~~~~~~~~~~~~~~~~~~~~
 ExternalExternalExternalExternalExternalExternalExternalExternalExternalExternal

 Recovered energy= -46.8123430643     dipole=     -0.157478856292      0.669921018261     -0.075020598454
 Energy=    -46.8123431     NIter=   0.
 Dipole moment=      -0.157479       0.669921      -0.075021
 Leave Link  402 at Mon Sep 15 19:06:07 2025, MaxMem=    33554432 cpu:         0.0
 (Enter /appl/g09.shchoi/G09Files/g09/l601.exe)
 Leave Link  601 at Mon Sep 15 19:06:07 2025, MaxMem=    33554432 cpu:         0.0
 (Enter /appl/g09.shchoi/G09Files/g09/l716.exe)
 Dipole        =-1.57478856D-01 6.69921018D-01-7.50205985D-02
 ***** Axes restored to original set *****
 -------------------------------------------------------------------
 Center     Atomic                   Forces (Hartrees/Bohr)
 Number     Number              X              Y              Z
 -------------------------------------------------------------------
      1       23          -0.181364991    0.015889123    0.000883751
      2       17           0.204085111    0.007666461    0.017914393
      3        7           0.026859571    0.032187307    0.218080402
      4        7           0.030585458   -0.036821250   -0.249219022
      5        8          -0.013945237    0.014281263    0.008997545
      6        8          -0.015456774   -0.012804691   -0.023014839
      7        6          -0.004599938   -0.025555309    0.047103165
      8        6           0.004780824    0.041808434   -0.064060048
      9        6          -0.023203027   -0.068100376    0.000172607
     10        6           0.008443755    0.039547524   -0.036594341
     11        6          -0.001014534   -0.032423092    0.096839278
     12        6          -0.030514431    0.008755021   -0.044563913
     13        6           0.038488264   -0.012644988    0.064808998
     14        6          -0.057388810    0.040247258   -0.000133783
     15        6           0.037360419   -0.018474399    0.042193237
     16        6          -0.030860143    0.005186633   -0.080522014
     17        1          -0.001854665   -0.003382105   -0.000099433
     18        1          -0.000828575   -0.001535417   -0.002178730
     19        1          -0.000313503   -0.000309283   -0.002080592
     20        1           0.000903042    0.002826802   -0.001501545
     21        1           0.002770656    0.010487418    0.003651125
     22        1          -0.004628843   -0.002616765   -0.007070610
     23        1          -0.000553335    0.001872335    0.004115010
     24        1           0.000251973    0.001026076    0.003546875
     25        1           0.003248042   -0.000875211    0.003822894
     26        1           0.008749691   -0.006238770   -0.001090410
 -------------------------------------------------------------------
 Cartesian Forces:  Max     0.249219022 RMS     0.055793617
 Leave Link  716 at Mon Sep 15 19:06:08 2025, MaxMem=    33554432 cpu:         0.0
 (Enter /appl/g09.shchoi/G09Files/g09/l103.exe)

 GradGradGradGradGradGradGradGradGradGradGradGradGradGradGradGradGradGrad
 Berny optimization.
 FormGI is forming the generalized inverse of G from B-inverse, IUseBI=4.
 Internal  Forces:  Max     0.264190764 RMS     0.038988148
 Search for a local minimum.
 Step number   1 out of a maximum of  148
 All quantities printed in internal units (Hartrees-Bohrs-Radians)
 RMS Force = .38988D-01 SwitMx=.10000D-02 MixMth= 1
 Mixed Optimization -- RFO/linear search
 Second derivative matrix not updated -- first step.
 ITU=  0
     Eigenvalues ---    0.01281   0.01341   0.01413   0.01511   0.01573
     Eigenvalues ---    0.01737   0.01889   0.01999   0.02042   0.02070
     Eigenvalues ---    0.02098   0.02163   0.02381   0.02426   0.02434
     Eigenvalues ---    0.02553   0.03467   0.03658   0.03698   0.07789
     Eigenvalues ---    0.12712   0.13671   0.15165   0.15165   0.15999
     Eigenvalues ---    0.15999   0.16000   0.16000   0.16000   0.16000
     Eigenvalues ---    0.16000   0.16000   0.16000   0.16000   0.21997
     Eigenvalues ---    0.22000   0.22000   0.22000   0.23301   0.23422
     Eigenvalues ---    0.24413   0.24758   0.25000   0.25000   0.25000
     Eigenvalues ---    0.32824   0.33466   0.33550   0.33688   0.35248
     Eigenvalues ---    0.35361   0.35405   0.35456   0.35527   0.35615
     Eigenvalues ---    0.36017   0.36172   0.37013   0.37829   0.39328
     Eigenvalues ---    0.39411   0.45390   0.46622   0.48749   0.51855
     Eigenvalues ---    0.52357   0.54990   0.55065   0.59994   0.59994
     Eigenvalues ---    0.62150   0.66161
 RFO step:  Lambda=-2.76726482D-01 EMin= 1.28109005D-02
 Linear search not attempted -- first point.
 Maximum step size (   0.300) exceeded in Quadratic search.
    -- Step size scaled by   0.494
 Iteration  1 RMS(Cart)=  0.06948780 RMS(Int)=  0.00033081
 Iteration  2 RMS(Cart)=  0.00052675 RMS(Int)=  0.00005664
 Iteration  3 RMS(Cart)=  0.00000030 RMS(Int)=  0.00005664
 ITry= 1 IFail=0 DXMaxC= 2.59D-01 DCOld= 1.00D+10 DXMaxT= 3.00D-01 DXLimC= 3.00D+00 Rises=F
 Variable       Old X    -DE/DX   Delta X   Delta X   Delta X     New X
                                 (Linear)    (Quad)   (Total)
    R1        3.37316   0.20409   0.00000   0.13576   0.13576   3.50892
    R2        2.96788   0.25937   0.00000   0.16118   0.16118   3.12907
    R3        2.96309   0.26419   0.00000   0.16315   0.16315   3.12624
    R4        2.89695   0.01934   0.00000   0.01090   0.01090   2.90785
    R5        2.89695   0.01882   0.00000   0.01061   0.01061   2.90756
    R6        2.59589  -0.01999   0.00000  -0.01257  -0.01254   2.58334
    R7        2.44972   0.03746   0.00000   0.01939   0.01941   2.46912
    R8        2.63524  -0.02182   0.00000  -0.01451  -0.01449   2.62074
    R9        2.48092   0.01961   0.00000   0.01044   0.01045   2.49137
   R10        2.73081  -0.04970   0.00000  -0.03690  -0.03689   2.69392
   R11        2.04941  -0.00319   0.00000  -0.00250  -0.00250   2.04691
   R12        2.53151   0.03607   0.00000   0.02089   0.02087   2.55239
   R13        2.05023  -0.00254   0.00000  -0.00199  -0.00199   2.04824
   R14        2.71052  -0.04462   0.00000  -0.03253  -0.03255   2.67797
   R15        2.04688  -0.00208   0.00000  -0.00163  -0.00163   2.04525
   R16        2.79177  -0.05752   0.00000  -0.04544  -0.04544   2.74632
   R17        2.03813  -0.00332   0.00000  -0.00257  -0.00257   2.03556
   R18        2.08240  -0.01116   0.00000  -0.00902  -0.00902   2.07338
   R19        2.74354  -0.05389   0.00000  -0.04032  -0.04032   2.70322
   R20        2.04828  -0.00591   0.00000  -0.00462  -0.00462   2.04366
   R21        2.52992   0.03476   0.00000   0.02035   0.02034   2.55025
   R22        2.05274  -0.00335   0.00000  -0.00263  -0.00263   2.05011
   R23        2.70763  -0.04417   0.00000  -0.03200  -0.03201   2.67562
   R24        2.05092  -0.00367   0.00000  -0.00287  -0.00287   2.04805
   R25        2.80774  -0.06654   0.00000  -0.05365  -0.05365   2.75409
   R26        2.04054  -0.00461   0.00000  -0.00358  -0.00358   2.03697
   R27        2.08096  -0.00995   0.00000  -0.00803  -0.00803   2.07293
    A1        1.56807  -0.02983   0.00000  -0.02786  -0.02785   1.54022
    A2        1.57304   0.03062   0.00000   0.02887   0.02885   1.60189
    A3        2.09440  -0.00167   0.00000  -0.00191  -0.00231   2.09209
    A4        2.09440   0.00661   0.00000   0.00761   0.00789   2.10228
    A5        1.57285  -0.01232   0.00000  -0.01131  -0.01130   1.56155
    A6        1.57147   0.03226   0.00000   0.02989   0.02990   1.60136
    A7        1.57250   0.01371   0.00000   0.01311   0.01311   1.58560
    A8        1.56685  -0.03443   0.00000  -0.03268  -0.03267   1.53418
    A9        2.09440  -0.00494   0.00000  -0.00569  -0.00563   2.08876
   A10        2.12193  -0.01306   0.00000  -0.01235  -0.01238   2.10955
   A11        2.10894   0.03276   0.00000   0.03085   0.03083   2.13977
   A12        2.04453  -0.01944   0.00000  -0.01812  -0.01808   2.02645
   A13        2.14676   0.02028   0.00000   0.01936   0.01934   2.16609
   A14        2.13473  -0.00973   0.00000  -0.00912  -0.00913   2.12560
   A15        1.98445  -0.01066   0.00000  -0.01049  -0.01045   1.97400
   A16        2.12712   0.01120   0.00000   0.01115   0.01118   2.13830
   A17        2.05721  -0.00772   0.00000  -0.00798  -0.00799   2.04921
   A18        2.09886  -0.00348   0.00000  -0.00317  -0.00319   2.09567
   A19        2.11991  -0.00493   0.00000  -0.00526  -0.00527   2.11464
   A20        2.05023   0.00128   0.00000   0.00129   0.00129   2.05152
   A21        2.11304   0.00365   0.00000   0.00398   0.00398   2.11702
   A22        2.05979  -0.00206   0.00000  -0.00258  -0.00262   2.05717
   A23        2.13240   0.00146   0.00000   0.00177   0.00179   2.13420
   A24        2.09099   0.00060   0.00000   0.00081   0.00083   2.09182
   A25        2.03549   0.00566   0.00000   0.00527   0.00524   2.04074
   A26        2.14656  -0.00281   0.00000  -0.00262  -0.00260   2.14395
   A27        2.10113  -0.00284   0.00000  -0.00265  -0.00264   2.09850
   A28        2.17952   0.00958   0.00000   0.00954   0.00954   2.18907
   A29        2.08521  -0.00712   0.00000  -0.00741  -0.00742   2.07780
   A30        2.01845  -0.00245   0.00000  -0.00212  -0.00213   2.01632
   A31        2.15695   0.00478   0.00000   0.00499   0.00500   2.16195
   A32        2.04703   0.00349   0.00000   0.00416   0.00416   2.05119
   A33        2.07912  -0.00824   0.00000  -0.00911  -0.00912   2.07000
   A34        2.12420  -0.00513   0.00000  -0.00459  -0.00461   2.11959
   A35        2.05765  -0.00058   0.00000  -0.00126  -0.00125   2.05640
   A36        2.10133   0.00571   0.00000   0.00585   0.00586   2.10719
   A37        2.04897  -0.00285   0.00000  -0.00262  -0.00265   2.04632
   A38        2.13704   0.00187   0.00000   0.00181   0.00182   2.13886
   A39        2.09718   0.00098   0.00000   0.00081   0.00082   2.09800
   A40        2.04111   0.00494   0.00000   0.00451   0.00450   2.04561
   A41        2.13319  -0.00032   0.00000   0.00018   0.00019   2.13338
   A42        2.10885  -0.00462   0.00000  -0.00469  -0.00468   2.10416
   A43        2.21023   0.00892   0.00000   0.00821   0.00822   2.21845
   A44        2.06928  -0.00883   0.00000  -0.00905  -0.00906   2.06022
   A45        2.00367  -0.00008   0.00000   0.00085   0.00084   2.00451
   A46        3.14111   0.00079   0.00000   0.00101   0.00100   3.14211
   A47        3.13754  -0.00206   0.00000  -0.00266  -0.00266   3.13488
    D1        1.17041  -0.00291   0.00000  -0.00273  -0.00260   1.16782
    D2       -1.83359  -0.00371   0.00000  -0.00470  -0.00458  -1.83817
    D3       -0.92398  -0.00123   0.00000  -0.00082  -0.00091  -0.92489
    D4        2.35520  -0.00204   0.00000  -0.00278  -0.00289   2.35231
    D5       -3.01838   0.00364   0.00000   0.00481   0.00476  -3.01362
    D6        0.26080   0.00284   0.00000   0.00285   0.00278   0.26358
    D7        1.89460   0.00434   0.00000   0.00682   0.00685   1.90145
    D8       -1.45998   0.00101   0.00000   0.00230   0.00232  -1.45766
    D9       -1.10833   0.00351   0.00000   0.00483   0.00485  -1.10348
   D10        1.82028   0.00018   0.00000   0.00031   0.00032   1.82059
   D11        0.72392   0.00642   0.00000   0.00856   0.00835   0.73227
   D12       -2.62873   0.00446   0.00000   0.00580   0.00559  -2.62315
   D13        2.81832   0.00490   0.00000   0.00679   0.00691   2.82523
   D14       -0.53433   0.00294   0.00000   0.00403   0.00415  -0.53018
   D15       -1.37047  -0.00008   0.00000   0.00106   0.00110  -1.36937
   D16        1.56006  -0.00204   0.00000  -0.00170  -0.00166   1.55840
   D17       -3.00830  -0.00392   0.00000  -0.00482  -0.00480  -3.01309
   D18        0.13347  -0.00291   0.00000  -0.00328  -0.00326   0.13021
   D19        0.00056   0.00079   0.00000   0.00077   0.00076   0.00132
   D20       -3.14085   0.00180   0.00000   0.00231   0.00229  -3.13856
   D21        3.00987   0.00028   0.00000   0.00120   0.00120   3.01107
   D22       -0.13172  -0.00010   0.00000   0.00027   0.00028  -0.13145
   D23       -0.00003  -0.00074   0.00000  -0.00091  -0.00090  -0.00093
   D24        3.14156  -0.00112   0.00000  -0.00183  -0.00182   3.13974
   D25        2.91409  -0.00202   0.00000  -0.00250  -0.00253   2.91156
   D26       -0.24132  -0.00005   0.00000   0.00058   0.00057  -0.24075
   D27       -0.03291   0.00008   0.00000   0.00026   0.00025  -0.03266
   D28        3.09487   0.00205   0.00000   0.00334   0.00335   3.09822
   D29       -2.93076  -0.00164   0.00000  -0.00114  -0.00117  -2.93193
   D30        0.20632  -0.00106   0.00000  -0.00038  -0.00041   0.20591
   D31        0.01775   0.00006   0.00000  -0.00030  -0.00029   0.01746
   D32       -3.12835   0.00064   0.00000   0.00046   0.00047  -3.12787
   D33       -0.00058  -0.00022   0.00000   0.00003   0.00003  -0.00055
   D34        3.14110   0.00006   0.00000   0.00023   0.00023   3.14133
   D35        3.14083  -0.00125   0.00000  -0.00155  -0.00155   3.13929
   D36       -0.00067  -0.00097   0.00000  -0.00134  -0.00134  -0.00202
   D37        0.00003  -0.00043   0.00000  -0.00069  -0.00069  -0.00066
   D38       -3.14151   0.00008   0.00000   0.00000   0.00000  -3.14151
   D39        3.14153  -0.00072   0.00000  -0.00090  -0.00090   3.14063
   D40       -0.00001  -0.00021   0.00000  -0.00021  -0.00021  -0.00021
   D41        0.00046   0.00047   0.00000   0.00056   0.00056   0.00101
   D42       -3.14063   0.00046   0.00000   0.00071   0.00071  -3.13992
   D43       -3.14119  -0.00002   0.00000  -0.00012  -0.00012  -3.14131
   D44        0.00091  -0.00003   0.00000   0.00004   0.00004   0.00095
   D45       -0.00048   0.00013   0.00000   0.00027   0.00027  -0.00021
   D46        3.14111   0.00049   0.00000   0.00115   0.00116  -3.14091
   D47        3.14062   0.00014   0.00000   0.00011   0.00011   3.14073
   D48       -0.00097   0.00050   0.00000   0.00100   0.00100   0.00003
   D49        0.02570   0.00000   0.00000   0.00006   0.00006   0.02575
   D50       -3.11942   0.00031   0.00000   0.00040   0.00040  -3.11901
   D51       -3.10184  -0.00209   0.00000  -0.00318  -0.00318  -3.10502
   D52        0.03623  -0.00178   0.00000  -0.00283  -0.00283   0.03340
   D53        0.00002  -0.00001   0.00000  -0.00018  -0.00018  -0.00015
   D54        3.14147  -0.00012   0.00000  -0.00027  -0.00027   3.14120
   D55       -3.13796  -0.00031   0.00000  -0.00052  -0.00052  -3.13848
   D56        0.00349  -0.00042   0.00000  -0.00061  -0.00061   0.00288
   D57       -0.01415   0.00012   0.00000   0.00015   0.00015  -0.01400
   D58        3.13698  -0.00039   0.00000  -0.00044  -0.00044   3.13653
   D59        3.12758   0.00022   0.00000   0.00023   0.00024   3.12782
   D60       -0.00448  -0.00028   0.00000  -0.00035  -0.00035  -0.00483
   D61        0.00519  -0.00017   0.00000   0.00006   0.00006   0.00524
   D62       -3.13204  -0.00071   0.00000  -0.00065  -0.00066  -3.13271
   D63        3.13739   0.00035   0.00000   0.00066   0.00066   3.13805
   D64        0.00016  -0.00019   0.00000  -0.00005  -0.00006   0.00010
         Item               Value     Threshold  Converged?
 Maximum Force            0.264191     0.000450     NO 
 RMS     Force            0.038988     0.000300     NO 
 Maximum Displacement     0.258876     0.001800     NO 
 RMS     Displacement     0.069442     0.001200     NO 
 Predicted change in Energy=-1.154769D-01
 GradGradGradGradGradGradGradGradGradGradGradGradGradGradGradGradGradGrad

 Leave Link  103 at Mon Sep 15 19:06:08 2025, MaxMem=    33554432 cpu:         0.0
 (Enter /appl/g09.shchoi/G09Files/g09/l202.exe)
                          Input orientation:                          
 ---------------------------------------------------------------------
 Center     Atomic      Atomic             Coordinates (Angstroms)
 Number     Number       Type             X           Y           Z
 ---------------------------------------------------------------------
      1         23           0        0.008788   -0.016727   -0.003831
      2         17           0        1.864581   -0.005904    0.057640
      3          7           0        0.004625   -0.022460    1.651984
      4          7           0        0.012151   -0.022106   -1.658155
      5          8           0       -0.766267    1.312490    0.013054
      6          8           0       -0.761912   -1.347323   -0.057397
      7          6           0        0.456596    1.057226    2.358254
      8          6           0        0.612906    1.035236    3.775049
      9          6           0        0.316564   -0.069242    4.493801
     10          6           0       -0.156278   -1.207495    3.794495
     11          6           0       -0.281640   -1.088241    2.351539
     12          6           0        0.872035   -0.787417   -2.431601
     13          6           0        0.703671   -1.002123   -3.835821
     14          6           0       -0.313263   -0.434697   -4.517817
     15          6           0       -1.208152    0.382766   -3.785951
     16          6           0       -0.962960    0.525349   -2.356415
     17          1           0        0.697533    1.953300    1.799439
     18          1           0        0.977725    1.936995    4.253106
     19          1           0        0.428310   -0.105933    5.569693
     20          1           0       -0.417559   -2.128985    4.287331
     21          1           0       -0.650201   -1.982429    1.833460
     22          1           0        1.722634   -1.236727   -1.937478
     23          1           0        1.424200   -1.636592   -4.341021
     24          1           0       -0.457533   -0.584845   -5.581408
     25          1           0       -2.044948    0.878520   -4.250606
     26          1           0       -1.683956    1.159507   -1.826035
 ---------------------------------------------------------------------
                    Distance matrix (angstroms):
                    1          2          3          4          5
     1  V    0.000000
     2  Cl   1.856842   0.000000
     3  N    1.655830   2.449825   0.000000
     4  N    1.654336   2.525017   3.310148   0.000000
     5  O    1.538770   2.943045   2.249990   2.275966   0.000000
     6  O    1.538614   2.951457   2.294520   2.217611   2.660749
     7  C    2.633126   2.899223   1.367047   4.182587   2.657163
     8  C    3.968818   4.058299   2.448700   5.567637   4.016416
     9  C    4.508457   4.698925   2.859269   6.159664   4.812359
    10  C    3.984026   4.414950   2.453682   5.582554   4.584944
    11  C    2.603893   3.322603   1.306605   4.159400   3.386279
    12  C    2.689465   2.791456   4.244199   1.386838   3.615243
    13  C    4.017215   4.183204   5.618221   2.486133   4.725673
    14  C    4.544721   5.085437   6.191723   2.907541   4.877158
    15  C    3.993115   4.936187   5.586248   2.486076   3.935999
    16  C    2.602459   3.755647   4.159757   1.318376   2.504529
    17  H    2.758108   2.869555   2.098926   4.040661   2.396773
    18  H    4.783031   4.707792   3.398856   6.301859   4.627046
    19  H    5.590003   5.696983   3.941437   7.240305   5.857916
    20  H    4.801820   5.254134   3.400109   6.322373   5.498617
    21  H    2.770179   3.658458   2.074418   4.058689   3.766144
    22  H    2.857386   2.348525   4.160557   2.116382   4.061737
    23  H    4.841340   4.711825   6.366846   3.434853   5.696771
    24  H    5.625795   6.125867   7.269926   3.991138   5.915505
    25  H    4.801499   5.884522   6.312929   3.429808   4.472376
    26  H    2.751242   4.183124   4.042891   2.073926   2.061020
                    6          7          8          9         10
     6  O    0.000000
     7  C    3.619667   0.000000
     8  C    4.717451   1.425561   0.000000
     9  C    4.848712   2.418492   1.350665   0.000000
    10  C    3.901720   2.750885   2.371047   1.417120   0.000000
    11  C    2.469971   2.268935   2.708458   2.446527   1.453292
    12  C    2.936004   5.149564   6.473925   6.984663   6.324410
    13  C    4.067380   6.532115   7.879366   8.390633   7.681368
    14  C    4.574879   7.078056   8.472905   9.040991   8.349635
    15  C    4.134543   6.401370   7.804530   8.431095   7.816555
    16  C    2.972003   4.952387   6.351235   6.994011   6.441055
    17  H    4.058562   1.083177   2.180146   3.390487   3.834041
    18  H    5.691530   2.153145   1.083883   2.126042   3.374034
    19  H    5.884031   3.415711   2.134734   1.082302   2.169450
    20  H    4.427893   3.825889   3.366984   2.196385   1.077171
    21  H    1.997794   3.277180   3.804143   3.416480   2.165673
    22  H    3.117675   5.031738   6.247101   6.685911   6.032137
    23  H    4.817904   7.285136   8.582975   9.040881   8.298715
    24  H    5.584685   8.159060   9.555824  10.118049   9.401383
    25  H    4.917678   7.068711   8.455760   9.107120   8.523038
    26  H    3.203504   4.701138   6.055011   6.741827   6.287039
                   11         12         13         14         15
    11  C    0.000000
    12  C    4.929492   0.000000
    13  C    6.265914   1.430482   0.000000
    14  C    6.900448   2.425210   1.349535   0.000000
    15  C    6.378955   2.744225   2.361244   1.415875   0.000000
    16  C    5.023217   2.257480   2.701753   2.452642   1.457402
    17  H    3.242617   5.044173   6.363232   6.828761   6.106946
    18  H    3.788668   7.219342   8.610706   9.177182   8.474675
    19  H    3.438818   8.042513   9.452125  10.120074   9.510253
    20  H    2.202024   6.971865   8.277232   8.967281   8.491867
    21  H    1.097185   4.683588   5.910559   6.545817   6.122355
    22  H    4.736542   1.081459   2.167263   3.383235   3.824802
    23  H    6.928272   2.161451   1.084869   2.120043   3.363805
    24  H    7.950849   3.424919   2.137660   1.083782   2.173331
    25  H    7.110958   3.820067   3.356153   2.189674   1.077916
    26  H    4.946816   3.269604   3.796399   3.415549   2.161246
                   16         17         18         19         20
    16  C    0.000000
    17  H    4.697596   0.000000
    18  H    7.031698   2.469667   0.000000
    19  H    8.072010   4.304386   2.491749   0.000000
    20  H    7.175118   4.908980   4.298858   2.540213   0.000000
    21  H    4.893038   4.160229   4.885357   4.317854   2.469228
    22  H    3.239264   5.019128   6.996480   7.701402   6.642650
    23  H    3.783013   7.149869   9.318202  10.077548   8.836458
    24  H    3.447980   7.890073  10.253648  11.196478   9.988892
    25  H    2.209838   6.728997   9.086806  10.174695   9.197274
    26  H    1.096947   4.409723   6.681691   7.794858   7.056287
                   21         22         23         24         25
    21  H    0.000000
    22  H    4.517343   0.000000
    23  H    6.522803   2.454786   0.000000
    24  H    7.547889   4.296079   2.487096   0.000000
    25  H    6.866309   4.900969   4.285901   2.536209   0.000000
    26  H    4.932780   4.166438   4.878930   4.318530   2.467349
                   26
    26  H    0.000000
 Stoichiometry    C10H10ClN2O2V
 Framework group  C1[X(C10H10ClN2O2V)]
 Deg. of freedom    72
 Full point group                 C1      NOp   1
 RotChk:  IX=0 Diff= 1.72D-01
 Largest Abelian subgroup         C1      NOp   1
 Largest concise Abelian subgroup C1      NOp   1
                         Standard orientation:                         
 ---------------------------------------------------------------------
 Center     Atomic      Atomic             Coordinates (Angstroms)
 Number     Number       Type             X           Y           Z
 ---------------------------------------------------------------------
      1         23           0        0.005643   -0.151489   -0.012557
      2         17           0       -0.178303    1.542114   -0.751296
      3          7           0       -1.645032   -0.229662    0.092006
      4          7           0        1.655282   -0.069701   -0.106526
      5          8           0       -0.007702   -1.390875   -0.924454
      6          8           0        0.157450   -0.326470    1.508518
      7          6           0       -2.417730   -0.277265   -1.034710
      8          6           0       -3.840048   -0.190847   -0.992674
      9          6           0       -4.497728   -0.056719    0.179402
     10          6           0       -3.728504   -0.005288    1.368468
     11          6           0       -2.285619   -0.100790    1.223490
     12          6           0        2.397289    1.058317    0.210208
     13          6           0        3.816332    1.054346    0.390704
     14          6           0        4.543100   -0.071587    0.231554
     15          6           0        3.842994   -1.250490   -0.121637
     16          6           0        2.396226   -1.148616   -0.264831
     17          1           0       -1.908429   -0.386740   -1.984394
     18          1           0       -4.373066   -0.237040   -1.935308
     19          1           0       -5.576641    0.010479    0.232399
     20          1           0       -4.169763    0.098699    2.345594
     21          1           0       -1.712716   -0.059182    2.158299
     22          1           0        1.864598    1.993561    0.315623
     23          1           0        4.295348    1.990232    0.658289
     24          1           0        5.618574   -0.094902    0.363436
     25          1           0        4.343728   -2.192908   -0.273347
     26          1           0        1.892143   -2.085971   -0.530462
 ---------------------------------------------------------------------
 Rotational constants (GHZ):      1.4162213      0.2741049      0.2680971
 Leave Link  202 at Mon Sep 15 19:06:08 2025, MaxMem=    33554432 cpu:         0.0
 (Enter /appl/g09.shchoi/G09Files/g09/l301.exe)
 Standard basis: SDD (6D, 10F)
 Ernie: Thresh=  0.10000D-02 Tol=  0.10000D-05 Strict=F.
 There are   227 symmetry adapted cartesian basis functions of A   symmetry.
 There are   227 symmetry adapted basis functions of A   symmetry.
   227 basis functions,   487 primitive gaussians,   227 cartesian basis functions
    65 alpha electrons       65 beta electrons
       nuclear repulsion energy      1382.4101594502 Hartrees.



 Warning!  Cl atom    2 may be hypervalent but has no d functions.



 IExCor=    0 DFT=F Ex=HF Corr=None ExCW=0 ScaHFX=  1.000000
 ScaDFX=  1.000000  1.000000  1.000000  1.000000 ScalE2=  1.000000  1.000000
 IRadAn=      0 IRanWt=     -1 IRanGd=            0 ICorTp=0 IEmpDi=  4
 NAtoms=   26 NActive=   26 NUniq=   26 SFac= 1.00D+00 NAtFMM=   60 NAOKFM=F Big=F
 Integral buffers will be    131072 words long.
 Raffenetti 1 integral format.
 Two-electron integral symmetry is turned on.
 Leave Link  301 at Mon Sep 15 19:06:08 2025, MaxMem=    33554432 cpu:         0.0
 (Enter /appl/g09.shchoi/G09Files/g09/l402.exe)
 External calculation of energy and first derivatives.
 Running external command "/home/rxn_grp/programs/xtb-gaussian R"
         input file       "/home/rxn_grp/scratch/metallogen_test/Gau-3289000.EIn"
         output file      "/home/rxn_grp/scratch/metallogen_test/Gau-3289000.EOu"
         message file     "/home/rxn_grp/scratch/metallogen_test/Gau-3289000.EMs"
         fchk file        "/home/rxn_grp/scratch/metallogen_test/Gau-3289000.EFC"
         mat. el file     "/home/rxn_grp/scratch/metallogen_test/Gau-3289000.EUF"

 ExternalExternalExternalExternalExternalExternalExternalExternalExternalExternal
 Output from external command:
 "/home/rxn_grp/programs/xtb-gaussian R /home/rxn_grp/scratch/metallogen_test/Gau-3289000.EIn /home/rxn_grp/scratch/metallogen_test/Gau-3289000.EOu /home/rxn_grp/scratch/metallogen_test/Gau-3289000.EMs /home/rxn_grp/scratch/metallogen_test/Gau-3289000.EFC /home/rxn_grp/scratch/metallogen_test/Gau-3289000.EUF"
 normal termination of xtb
  
 ------- xtb command was ---------
 ?> xtb ./Gau-3289000.EIn  --grad --charge 0  >/dev/null 2>Gau-3289000.EMs
 ---------------------------------
              Control returned to Gaussian.
 ~~~~~~~~~~~~~~~~~~~~~~~~~~~~~~~~~~~~~~~~~~~~~~~~~~~~~~~~~~~~~~~~~~~~~~~~~
 ExternalExternalExternalExternalExternalExternalExternalExternalExternalExternal

 Recovered energy= -46.9195369660     dipole=     -0.151028032067      0.557619809877     -0.026438311173
 Energy=    -46.9195370     NIter=   0.
 Dipole moment=      -0.151028       0.557620      -0.026438
 Leave Link  402 at Mon Sep 15 19:06:08 2025, MaxMem=    33554432 cpu:         0.0
 (Enter /appl/g09.shchoi/G09Files/g09/l716.exe)
 Dipole        =-1.51028032D-01 5.57619810D-01-2.64383112D-02
 ***** Axes restored to original set *****
 -------------------------------------------------------------------
 Center     Atomic                   Forces (Hartrees/Bohr)
 Number     Number              X              Y              Z
 -------------------------------------------------------------------
      1       23          -0.118715103    0.009051634   -0.002059388
      2       17           0.123331972    0.003173448    0.007428928
      3        7           0.022203550    0.023949035    0.139832958
      4        7           0.030468733   -0.027327948   -0.164152117
      5        8          -0.008126979    0.004255752    0.003785601
      6        8          -0.008724676   -0.004520070   -0.008717983
      7        6          -0.005003607   -0.020360962    0.031878804
      8        6           0.003711915    0.031567123   -0.048049946
      9        6          -0.017041289   -0.050715111    0.002289349
     10        6           0.006068741    0.030980844   -0.031704398
     11        6          -0.002593514   -0.025575330    0.065262245
     12        6          -0.025028941    0.011236317   -0.024294880
     13        6           0.030173320   -0.010762242    0.048024236
     14        6          -0.042669480    0.029506478   -0.000694930
     15        6           0.030027286   -0.015066229    0.034476590
     16        6          -0.026193490    0.007724807   -0.055881376
     17        1          -0.001215587   -0.001938933   -0.000884982
     18        1          -0.000681789   -0.001615229   -0.001126790
     19        1           0.000189070    0.000514429   -0.001489469
     20        1           0.000525177    0.001538106   -0.000987712
     21        1           0.002168884    0.008564175   -0.001442767
     22        1          -0.001841290   -0.001174925   -0.000855516
     23        1          -0.000722658    0.001616084    0.002719162
     24        1           0.000919168    0.000240855    0.002517813
     25        1           0.001824470   -0.000283661    0.002672222
     26        1           0.006946119   -0.004578447    0.001454348
 -------------------------------------------------------------------
 Cartesian Forces:  Max     0.164152117 RMS     0.037087331
 Leave Link  716 at Mon Sep 15 19:06:08 2025, MaxMem=    33554432 cpu:         0.0
 (Enter /appl/g09.shchoi/G09Files/g09/l103.exe)

 GradGradGradGradGradGradGradGradGradGradGradGradGradGradGradGradGradGrad
 Berny optimization.
 Using GEDIIS/GDIIS optimizer.
 FormGI is forming the generalized inverse of G from B-inverse, IUseBI=4.
 Internal  Forces:  Max     0.154050171 RMS     0.023551479
 Search for a local minimum.
 Step number   2 out of a maximum of  148
 All quantities printed in internal units (Hartrees-Bohrs-Radians)
 RMS Force = .23551D-01 SwitMx=.10000D-02 MixMth= 1
 Mixed Optimization -- RFO/linear search
 Update second derivatives using D2CorX and points    1    2
 DE= -1.07D-01 DEPred=-1.15D-01 R= 9.28D-01
 TightC=F SS=  1.41D+00  RLast= 3.01D-01 DXNew= 5.0454D-01 9.0203D-01
 Trust test= 9.28D-01 RLast= 3.01D-01 DXMaxT set to 5.05D-01
 ITU=  1  0
 Use linear search instead of GDIIS.
 Linear search step of   0.600 exceeds DXMaxT=   0.505 but not scaled.
 Quartic linear search produced a step of  2.00000.
 Iteration  1 RMS(Cart)=  0.09558427 RMS(Int)=  0.01607967
 Iteration  2 RMS(Cart)=  0.04940966 RMS(Int)=  0.00033550
 Iteration  3 RMS(Cart)=  0.00002406 RMS(Int)=  0.00033522
 Iteration  4 RMS(Cart)=  0.00000003 RMS(Int)=  0.00033522
 ITry= 1 IFail=0 DXMaxC= 5.17D-01 DCOld= 1.00D+10 DXMaxT= 5.05D-01 DXLimC= 3.00D+00 Rises=F
 Variable       Old X    -DE/DX   Delta X   Delta X   Delta X     New X
                                 (Linear)    (Quad)   (Total)
    R1        3.50892   0.12353   0.27152   0.00000   0.27152   3.78045
    R2        3.12907   0.15357   0.32237   0.00000   0.32237   3.45143
    R3        3.12624   0.15405   0.32630   0.00000   0.32630   3.45255
    R4        2.90785   0.00781   0.02181   0.00000   0.02181   2.92966
    R5        2.90756   0.00858   0.02122   0.00000   0.02122   2.92878
    R6        2.58334  -0.01919  -0.02509   0.00000  -0.02494   2.55840
    R7        2.46912   0.01971   0.03881   0.00000   0.03890   2.50803
    R8        2.62074  -0.02765  -0.02899   0.00000  -0.02892   2.59182
    R9        2.49137   0.00981   0.02090   0.00000   0.02099   2.51236
   R10        2.69392  -0.03675  -0.07377   0.00000  -0.07372   2.62020
   R11        2.04691  -0.00142  -0.00500   0.00000  -0.00500   2.04191
   R12        2.55239   0.02803   0.04175   0.00000   0.04165   2.59404
   R13        2.04824  -0.00207  -0.00398   0.00000  -0.00398   2.04426
   R14        2.67797  -0.03012  -0.06511   0.00000  -0.06525   2.61272
   R15        2.04525  -0.00148  -0.00326   0.00000  -0.00326   2.04200
   R16        2.74632  -0.04511  -0.09089   0.00000  -0.09093   2.65539
   R17        2.03556  -0.00190  -0.00515   0.00000  -0.00515   2.03041
   R18        2.07338  -0.00703  -0.01804   0.00000  -0.01804   2.05534
   R19        2.70322  -0.04051  -0.08064   0.00000  -0.08065   2.62257
   R20        2.04366  -0.00135  -0.00924   0.00000  -0.00924   2.03442
   R21        2.55025   0.02733   0.04067   0.00000   0.04058   2.59084
   R22        2.05011  -0.00269  -0.00526   0.00000  -0.00526   2.04484
   R23        2.67562  -0.02901  -0.06402   0.00000  -0.06409   2.61152
   R24        2.04805  -0.00263  -0.00575   0.00000  -0.00575   2.04230
   R25        2.75409  -0.05112  -0.10729   0.00000  -0.10727   2.64682
   R26        2.03697  -0.00270  -0.00716   0.00000  -0.00716   2.02981
   R27        2.07293  -0.00651  -0.01606   0.00000  -0.01606   2.05687
    A1        1.54022  -0.00879  -0.05571   0.00000  -0.05557   1.48464
    A2        1.60189   0.00288   0.05771   0.00000   0.05753   1.65942
    A3        2.09209   0.00055  -0.00461   0.00000  -0.00693   2.08516
    A4        2.10228   0.00362   0.01577   0.00000   0.01742   2.11970
    A5        1.56155  -0.00188  -0.02260   0.00000  -0.02246   1.53909
    A6        1.60136   0.01159   0.05979   0.00000   0.05981   1.66117
    A7        1.58560   0.00906   0.02621   0.00000   0.02604   1.61164
    A8        1.53418  -0.01280  -0.06535   0.00000  -0.06526   1.46892
    A9        2.08876  -0.00416  -0.01126   0.00000  -0.01087   2.07789
   A10        2.10955  -0.00239  -0.02475   0.00000  -0.02489   2.08467
   A11        2.13977   0.00863   0.06166   0.00000   0.06155   2.20132
   A12        2.02645  -0.00593  -0.03616   0.00000  -0.03592   1.99053
   A13        2.16609   0.00264   0.03867   0.00000   0.03854   2.20464
   A14        2.12560  -0.00501  -0.01826   0.00000  -0.01830   2.10730
   A15        1.97400   0.00227  -0.02091   0.00000  -0.02071   1.95329
   A16        2.13830   0.00509   0.02236   0.00000   0.02256   2.16086
   A17        2.04921  -0.00455  -0.01598   0.00000  -0.01609   2.03313
   A18        2.09567  -0.00054  -0.00638   0.00000  -0.00648   2.08919
   A19        2.11464  -0.00539  -0.01054   0.00000  -0.01059   2.10406
   A20        2.05152   0.00245   0.00258   0.00000   0.00260   2.05412
   A21        2.11702   0.00294   0.00796   0.00000   0.00798   2.12500
   A22        2.05717  -0.00145  -0.00524   0.00000  -0.00549   2.05168
   A23        2.13420   0.00016   0.00359   0.00000   0.00371   2.13791
   A24        2.09182   0.00129   0.00165   0.00000   0.00178   2.09360
   A25        2.04074   0.00445   0.01048   0.00000   0.01029   2.05102
   A26        2.14395  -0.00210  -0.00521   0.00000  -0.00511   2.13884
   A27        2.09850  -0.00235  -0.00527   0.00000  -0.00517   2.09332
   A28        2.18907   0.00322   0.01909   0.00000   0.01915   2.20821
   A29        2.07780  -0.00733  -0.01483   0.00000  -0.01486   2.06294
   A30        2.01632   0.00411  -0.00426   0.00000  -0.00429   2.01203
   A31        2.16195   0.00152   0.00999   0.00000   0.01004   2.17199
   A32        2.05119  -0.00007   0.00831   0.00000   0.00827   2.05946
   A33        2.07000  -0.00144  -0.01824   0.00000  -0.01827   2.05173
   A34        2.11959  -0.00600  -0.00922   0.00000  -0.00932   2.11027
   A35        2.05640   0.00118  -0.00251   0.00000  -0.00245   2.05394
   A36        2.10719   0.00482   0.01172   0.00000   0.01178   2.11897
   A37        2.04632  -0.00187  -0.00530   0.00000  -0.00547   2.04085
   A38        2.13886   0.00039   0.00365   0.00000   0.00373   2.14259
   A39        2.09800   0.00148   0.00165   0.00000   0.00173   2.09974
   A40        2.04561   0.00386   0.00900   0.00000   0.00893   2.05454
   A41        2.13338  -0.00012   0.00038   0.00000   0.00041   2.13379
   A42        2.10416  -0.00374  -0.00937   0.00000  -0.00933   2.09483
   A43        2.21845   0.00022   0.01644   0.00000   0.01654   2.23499
   A44        2.06022  -0.00569  -0.01812   0.00000  -0.01817   2.04205
   A45        2.00451   0.00546   0.00168   0.00000   0.00163   2.00614
   A46        3.14211  -0.00591   0.00200   0.00000   0.00195   3.14407
   A47        3.13488  -0.00489  -0.00532   0.00000  -0.00529   3.12959
    D1        1.16782   0.00031  -0.00519   0.00000  -0.00440   1.16342
    D2       -1.83817  -0.00208  -0.00915   0.00000  -0.00845  -1.84662
    D3       -0.92489  -0.00056  -0.00183   0.00000  -0.00239  -0.92728
    D4        2.35231  -0.00296  -0.00579   0.00000  -0.00644   2.34587
    D5       -3.01362   0.00357   0.00951   0.00000   0.00918  -3.00444
    D6        0.26358   0.00118   0.00555   0.00000   0.00513   0.26871
    D7        1.90145   0.00029   0.01370   0.00000   0.01391   1.91536
    D8       -1.45766  -0.00035   0.00464   0.00000   0.00476  -1.45290
    D9       -1.10348   0.00233   0.00970   0.00000   0.00982  -1.09366
   D10        1.82059   0.00169   0.00063   0.00000   0.00067   1.82126
   D11        0.73227   0.00210   0.01671   0.00000   0.01551   0.74778
   D12       -2.62315   0.00175   0.01118   0.00000   0.00993  -2.61322
   D13        2.82523   0.00315   0.01383   0.00000   0.01459   2.83982
   D14       -0.53018   0.00280   0.00830   0.00000   0.00901  -0.52118
   D15       -1.36937  -0.00127   0.00221   0.00000   0.00248  -1.36689
   D16        1.55840  -0.00162  -0.00332   0.00000  -0.00310   1.55530
   D17       -3.01309  -0.00262  -0.00960   0.00000  -0.00946  -3.02255
   D18        0.13021  -0.00199  -0.00652   0.00000  -0.00641   0.12380
   D19        0.00132   0.00070   0.00151   0.00000   0.00143   0.00275
   D20       -3.13856   0.00133   0.00459   0.00000   0.00448  -3.13408
   D21        3.01107   0.00168   0.00239   0.00000   0.00240   3.01347
   D22       -0.13145   0.00130   0.00055   0.00000   0.00056  -0.13089
   D23       -0.00093  -0.00080  -0.00180   0.00000  -0.00177  -0.00270
   D24        3.13974  -0.00118  -0.00364   0.00000  -0.00361   3.13613
   D25        2.91156  -0.00109  -0.00505   0.00000  -0.00519   2.90637
   D26       -0.24075  -0.00005   0.00114   0.00000   0.00111  -0.23963
   D27       -0.03266   0.00004   0.00051   0.00000   0.00047  -0.03219
   D28        3.09822   0.00108   0.00671   0.00000   0.00677   3.10499
   D29       -2.93193   0.00016  -0.00234   0.00000  -0.00253  -2.93446
   D30        0.20591   0.00020  -0.00082   0.00000  -0.00100   0.20491
   D31        0.01746   0.00001  -0.00057   0.00000  -0.00051   0.01696
   D32       -3.12787   0.00005   0.00095   0.00000   0.00102  -3.12686
   D33       -0.00055  -0.00008   0.00006   0.00000   0.00007  -0.00048
   D34        3.14133  -0.00003   0.00047   0.00000   0.00046  -3.14139
   D35        3.13929  -0.00072  -0.00309   0.00000  -0.00308   3.13620
   D36       -0.00202  -0.00067  -0.00269   0.00000  -0.00269  -0.00470
   D37       -0.00066  -0.00048  -0.00138   0.00000  -0.00140  -0.00206
   D38       -3.14151  -0.00008   0.00000   0.00000  -0.00000  -3.14151
   D39        3.14063  -0.00054  -0.00180   0.00000  -0.00181   3.13882
   D40       -0.00021  -0.00013  -0.00042   0.00000  -0.00042  -0.00063
   D41        0.00101   0.00040   0.00111   0.00000   0.00110   0.00211
   D42       -3.13992   0.00048   0.00143   0.00000   0.00143  -3.13848
   D43       -3.14131   0.00001  -0.00024   0.00000  -0.00025  -3.14156
   D44        0.00095   0.00008   0.00008   0.00000   0.00008   0.00103
   D45       -0.00021   0.00027   0.00053   0.00000   0.00054   0.00033
   D46       -3.14091   0.00064   0.00232   0.00000   0.00234  -3.13857
   D47        3.14073   0.00019   0.00023   0.00000   0.00022   3.14095
   D48        0.00003   0.00057   0.00201   0.00000   0.00202   0.00205
   D49        0.02575  -0.00011   0.00011   0.00000   0.00009   0.02584
   D50       -3.11901   0.00002   0.00080   0.00000   0.00079  -3.11822
   D51       -3.10502  -0.00117  -0.00635   0.00000  -0.00634  -3.11136
   D52        0.03340  -0.00104  -0.00566   0.00000  -0.00564   0.02776
   D53       -0.00015  -0.00001  -0.00035   0.00000  -0.00032  -0.00048
   D54        3.14120  -0.00009  -0.00054   0.00000  -0.00053   3.14067
   D55       -3.13848  -0.00013  -0.00104   0.00000  -0.00102  -3.13950
   D56        0.00288  -0.00021  -0.00122   0.00000  -0.00123   0.00165
   D57       -0.01400   0.00009   0.00029   0.00000   0.00029  -0.01371
   D58        3.13653  -0.00014  -0.00088   0.00000  -0.00093   3.13561
   D59        3.12782   0.00017   0.00048   0.00000   0.00050   3.12832
   D60       -0.00483  -0.00006  -0.00070   0.00000  -0.00072  -0.00555
   D61        0.00524  -0.00003   0.00011   0.00000   0.00006   0.00531
   D62       -3.13271  -0.00005  -0.00132   0.00000  -0.00140  -3.13411
   D63        3.13805   0.00021   0.00132   0.00000   0.00130   3.13936
   D64        0.00010   0.00019  -0.00011   0.00000  -0.00016  -0.00006
         Item               Value     Threshold  Converged?
 Maximum Force            0.154050     0.000450     NO 
 RMS     Force            0.023551     0.000300     NO 
 Maximum Displacement     0.517246     0.001800     NO 
 RMS     Displacement     0.137946     0.001200     NO 
 Predicted change in Energy=-5.171670D-02
 GradGradGradGradGradGradGradGradGradGradGradGradGradGradGradGradGradGrad

 Leave Link  103 at Mon Sep 15 19:06:08 2025, MaxMem=    33554432 cpu:         0.0
 (Enter /appl/g09.shchoi/G09Files/g09/l202.exe)
                          Input orientation:                          
 ---------------------------------------------------------------------
 Center     Atomic      Atomic             Coordinates (Angstroms)
 Number     Number       Type             X           Y           Z
 ---------------------------------------------------------------------
      1         23           0        0.026227   -0.049659   -0.012065
      2         17           0        2.016803   -0.017284    0.184579
      3          7           0        0.004018   -0.065542    1.814150
      4          7           0        0.044288   -0.055686   -1.838975
      5          8           0       -0.766998    1.281372    0.039016
      6          8           0       -0.748885   -1.382070   -0.172966
      7          6           0        0.444436    1.018921    2.494498
      8          6           0        0.595909    1.056201    3.872244
      9          6           0        0.295277   -0.043170    4.637310
     10          6           0       -0.161131   -1.172321    3.982892
     11          6           0       -0.279739   -1.108598    2.584183
     12          6           0        0.874420   -0.796835   -2.640652
     13          6           0        0.689827   -0.981957   -4.003608
     14          6           0       -0.357489   -0.388173   -4.659520
     15          6           0       -1.208473    0.393485   -3.901464
     16          6           0       -0.944852    0.502318   -2.530173
     17          1           0        0.680403    1.893921    1.906073
     18          1           0        0.955585    1.975951    4.313756
     19          1           0        0.401528   -0.048700    5.712638
     20          1           0       -0.422337   -2.075716    4.502590
     21          1           0       -0.644558   -2.015421    2.107175
     22          1           0        1.730543   -1.265077   -2.185895
     23          1           0        1.401159   -1.607345   -4.526871
     24          1           0       -0.529004   -0.511168   -5.719451
     25          1           0       -2.052517    0.902340   -4.328558
     26          1           0       -1.646791    1.122357   -1.975596
 ---------------------------------------------------------------------
                    Distance matrix (angstroms):
                    1          2          3          4          5
     1  V    0.000000
     2  Cl   2.000527   0.000000
     3  N    1.826419   2.590199   0.000000
     4  N    1.827009   2.826139   3.653360   0.000000
     5  O    1.550309   3.075263   2.357911   2.443923   0.000000
     6  O    1.549841   3.104756   2.499748   2.272444   2.671927
     7  C    2.756741   2.980232   1.353847   4.482620   2.750608
     8  C    4.078641   4.095141   2.417518   5.844535   4.074537
     9  C    4.657157   4.774006   2.838233   6.481159   4.901749
    10  C    4.153932   4.528210   2.440425   5.931543   4.684212
    11  C    2.820544   3.496165   1.327190   4.558283   3.525231
    12  C    2.861324   3.145579   4.597570   1.371535   3.767468
    13  C    4.152344   4.498041   5.929288   2.441380   4.856728
    14  C    4.675539   5.407413   6.491778   2.868352   5.003131
    15  C    4.104667   5.221770   5.860809   2.454593   4.063328
    16  C    2.754731   4.051082   4.482852   1.329482   2.690593
    17  H    2.807970   2.898656   2.074956   4.269776   2.440509
    18  H    4.866161   4.706301   3.364700   6.543249   4.660808
[...]
 ! A20   A(7,8,18)             120.0835         -DE/DX =    0.0                 !
 ! A21   A(9,8,18)             121.0661         -DE/DX =    0.0                 !
 ! A22   A(8,9,10)             118.389          -DE/DX =    0.0                 !
 ! A23   A(8,9,19)             120.8053         -DE/DX =    0.0                 !
 ! A24   A(10,9,19)            120.8056         -DE/DX =    0.0                 !
 ! A25   A(9,10,11)            118.8506         -DE/DX =    0.0                 !
 ! A26   A(9,10,20)            121.0659         -DE/DX =    0.0                 !
 ! A27   A(11,10,20)           120.0835         -DE/DX =    0.0                 !
 ! A28   A(3,11,10)            122.4557         -DE/DX =    0.0                 !
 ! A29   A(3,11,21)            115.9957         -DE/DX =    0.0                 !
 ! A30   A(10,11,21)           121.5481         -DE/DX =    0.0                 !
 ! A31   A(4,12,13)            122.4564         -DE/DX =    0.0                 !
 ! A32   A(4,12,22)            115.9957         -DE/DX =    0.0                 !
 ! A33   A(13,12,22)           121.5474         -DE/DX =    0.0                 !
 ! A34   A(12,13,14)           118.8506         -DE/DX =    0.0                 !
 ! A35   A(12,13,23)           120.0831         -DE/DX =    0.0                 !
 ! A36   A(14,13,23)           121.0663         -DE/DX =    0.0                 !
 ! A37   A(13,14,15)           118.3886         -DE/DX =    0.0                 !
 ! A38   A(13,14,24)           120.8058         -DE/DX =    0.0                 !
 ! A39   A(15,14,24)           120.8055         -DE/DX =    0.0                 !
 ! A40   A(14,15,16)           118.8508         -DE/DX =    0.0                 !
 ! A41   A(14,15,25)           121.0659         -DE/DX =    0.0                 !
 ! A42   A(16,15,25)           120.0832         -DE/DX =    0.0                 !
 ! A43   A(4,16,15)            122.4564         -DE/DX =    0.0                 !
 ! A44   A(4,16,26)            115.9957         -DE/DX =    0.0                 !
 ! A45   A(15,16,26)           121.5475         -DE/DX =    0.0                 !
 ! A46   L(3,1,4,2,-1)         166.3673         -DE/DX =    0.0                 !
 ! A47   L(3,1,4,2,-2)         180.0054         -DE/DX =    0.0                 !
 ! D1    D(2,1,3,7)             86.9246         -DE/DX =    0.0                 !
 ! D2    D(2,1,3,11)           -86.9431         -DE/DX =    0.0                 !
 ! D3    D(5,1,3,7)            -35.8409         -DE/DX =    0.0                 !
 ! D4    D(5,1,3,11)           150.2914         -DE/DX =    0.0                 !
 ! D5    D(6,1,3,7)           -150.3272         -DE/DX =    0.0                 !
 ! D6    D(6,1,3,11)            35.8051         -DE/DX =    0.0                 !
 ! D7    D(7,3,4,12)           166.0097         -DE/DX =    0.0                 !
 ! D8    D(7,3,4,16)             0.0118         -DE/DX =    0.0                 !
 ! D9    D(11,3,4,12)            0.0125         -DE/DX =    0.0                 !
 ! D10   D(11,3,4,16)         -165.9853         -DE/DX =    0.0                 !
 ! D11   D(2,1,4,12)            86.9562         -DE/DX =    0.0                 !
 ! D12   D(2,1,4,16)           -86.9137         -DE/DX =    0.0                 !
 ! D13   D(5,1,4,12)          -150.2789         -DE/DX =    0.0                 !
 ! D14   D(5,1,4,16)            35.8512         -DE/DX =    0.0                 !
 ! D15   D(6,1,4,12)           -35.7914         -DE/DX =    0.0                 !
 ! D16   D(6,1,4,16)           150.3387         -DE/DX =    0.0                 !
 ! D17   D(1,3,7,8)           -173.5217         -DE/DX =    0.0                 !
 ! D18   D(1,3,7,17)             6.7238         -DE/DX =    0.0                 !
 ! D19   D(11,3,7,8)             0.4292         -DE/DX =    0.0                 !
 ! D20   D(11,3,7,17)         -179.3253         -DE/DX =    0.0                 !
 ! D21   D(1,3,11,10)          173.5212         -DE/DX =    0.0                 !
 ! D22   D(1,3,11,21)           -6.7243         -DE/DX =    0.0                 !
 ! D23   D(7,3,11,10)           -0.4295         -DE/DX =    0.0                 !
 ! D24   D(7,3,11,21)          179.325          -DE/DX =    0.0                 !
 ! D25   D(1,4,12,13)         -173.5229         -DE/DX =    0.0                 !
 ! D26   D(1,4,12,22)            6.7223         -DE/DX =    0.0                 !
 ! D27   D(16,4,12,13)           0.4302         -DE/DX =    0.0                 !
 ! D28   D(16,4,12,22)        -179.3245         -DE/DX =    0.0                 !
 ! D29   D(1,4,16,15)          173.5227         -DE/DX =    0.0                 !
 ! D30   D(1,4,16,26)           -6.7223         -DE/DX =    0.0                 !
 ! D31   D(12,4,16,15)          -0.4303         -DE/DX =    0.0                 !
 ! D32   D(12,4,16,26)         179.3247         -DE/DX =    0.0                 !
 ! D33   D(3,7,8,9)             -0.0353         -DE/DX =    0.0                 !
 ! D34   D(3,7,8,18)           179.895          -DE/DX =    0.0                 !
 ! D35   D(17,7,8,9)           179.7057         -DE/DX =    0.0                 !
 ! D36   D(17,7,8,18)           -0.3639         -DE/DX =    0.0                 !
 ! D37   D(7,8,9,10)            -0.3561         -DE/DX =    0.0                 !
 ! D38   D(7,8,9,19)           179.7689         -DE/DX =    0.0                 !
 ! D39   D(18,8,9,10)          179.7143         -DE/DX =    0.0                 !
 ! D40   D(18,8,9,19)           -0.1608         -DE/DX =    0.0                 !
 ! D41   D(8,9,10,11)            0.3558         -DE/DX =    0.0                 !
 ! D42   D(8,9,10,20)         -179.7146         -DE/DX =    0.0                 !
 ! D43   D(19,9,10,11)        -179.7692         -DE/DX =    0.0                 !
 ! D44   D(19,9,10,20)           0.1605         -DE/DX =    0.0                 !
 ! D45   D(9,10,11,3)            0.036          -DE/DX =    0.0                 !
 ! D46   D(9,10,11,21)        -179.705          -DE/DX =    0.0                 !
 ! D47   D(20,10,11,3)        -179.8944         -DE/DX =    0.0                 !
 ! D48   D(20,10,11,21)          0.3646         -DE/DX =    0.0                 !
 ! D49   D(4,12,13,14)          -0.036          -DE/DX =    0.0                 !
 ! D50   D(4,12,13,23)         179.8949         -DE/DX =    0.0                 !
 ! D51   D(22,12,13,14)        179.7053         -DE/DX =    0.0                 !
 ! D52   D(22,12,13,23)         -0.3637         -DE/DX =    0.0                 !
 ! D53   D(12,13,14,15)         -0.356          -DE/DX =    0.0                 !
 ! D54   D(12,13,14,24)        179.7689         -DE/DX =    0.0                 !
 ! D55   D(23,13,14,15)        179.7137         -DE/DX =    0.0                 !
 ! D56   D(23,13,14,24)         -0.1614         -DE/DX =    0.0                 !
 ! D57   D(13,14,15,16)          0.356          -DE/DX =    0.0                 !
 ! D58   D(13,14,15,25)       -179.7139         -DE/DX =    0.0                 !
 ! D59   D(24,14,15,16)       -179.7689         -DE/DX =    0.0                 !
 ! D60   D(24,14,15,25)          0.1612         -DE/DX =    0.0                 !
 ! D61   D(14,15,16,4)           0.0361         -DE/DX =    0.0                 !
 ! D62   D(14,15,16,26)       -179.7054         -DE/DX =    0.0                 !
 ! D63   D(25,15,16,4)        -179.8947         -DE/DX =    0.0                 !
 ! D64   D(25,15,16,26)          0.3638         -DE/DX =    0.0                 !
 --------------------------------------------------------------------------------
 GradGradGradGradGradGradGradGradGradGradGradGradGradGradGradGradGradGrad

 Largest change from initial coordinates is atom   20       0.606 Angstoms.
 Leave Link  103 at Mon Sep 15 19:06:22 2025, MaxMem=    33554432 cpu:         0.0
 (Enter /appl/g09.shchoi/G09Files/g09/l202.exe)
                          Input orientation:                          
 ---------------------------------------------------------------------
 Center     Atomic      Atomic             Coordinates (Angstroms)
 Number     Number       Type             X           Y           Z
 ---------------------------------------------------------------------
      1         23           0       -0.476947   -0.249430    0.022380
      2         17           0        1.628773    0.251466   -0.130646
      3          7           0       -0.110571   -0.128490    2.025821
      4          7           0       -0.373400   -0.258386   -2.014882
      5          8           0       -1.584001    0.807947    0.060469
      6          8           0       -0.986046   -1.691499    0.101933
      7          6           0       -0.197227    1.036820    2.654266
      8          6           0        0.168141    1.194912    3.982089
      9          6           0        0.641180    0.095473    4.681025
     10          6           0        0.721355   -1.120532    4.020764
     11          6           0        0.334010   -1.186669    2.691406
     12          6           0       -0.014523   -1.358904   -2.663324
     13          6           0        0.197262   -1.379630   -4.033113
     14          6           0        0.027518   -0.208008   -4.753897
     15          6           0       -0.355429    0.935941   -4.071417
     16          6           0       -0.545264    0.864704   -2.700112
     17          1           0       -0.577332    1.866549    2.067398
     18          1           0        0.083531    2.160922    4.454921
     19          1           0        0.938141    0.183705    5.715534
     20          1           0        1.078879   -2.005023    4.524508
     21          1           0        0.374336   -2.116688    2.133927
     22          1           0        0.101286   -2.251535   -2.057397
     23          1           0        0.490064   -2.296093   -4.521239
     24          1           0        0.187754   -0.187422   -5.821642
     25          1           0       -0.504336    1.870090   -4.590162
     26          1           0       -0.849503    1.731925   -2.123299
 ---------------------------------------------------------------------
                    Distance matrix (angstroms):
                    1          2          3          4          5
     1  V    0.000000
     2  Cl   2.169877   0.000000
     3  N    2.040253   2.796432   0.000000
     4  N    2.039912   2.796246   4.051325   0.000000
     5  O    1.531361   3.266208   2.628787   2.628631   0.000000
     6  O    1.531364   3.265959   2.628840   2.628699   2.570312
     7  C    2.942704   3.421519   1.326800   4.848664   2.950138
     8  C    4.263984   4.465213   2.378247   6.194272   4.312639
     9  C    4.803346   4.914453   2.768645   6.781575   5.177702
    10  C    4.264015   4.465422   2.378245   6.194418   4.971684
    11  C    2.942748   3.421786   1.326801   4.848844   3.818258
    12  C    2.942410   3.421721   4.848838   1.326805   3.818056
    13  C    4.263676   4.465305   6.194417   2.378256   4.971499
    14  C    4.803023   4.914223   6.781591   2.768660   5.177574
    15  C    4.263689   4.464889   6.194294   2.378250   4.312568
    16  C    2.942435   3.421206   4.848694   1.326804   2.950084
    17  H    2.944408   3.508103   2.049334   4.606728   2.482294
    18  H    5.076549   5.202040   3.343592   6.922441   4.891055
    19  H    5.882353   5.887222   3.848538   7.853338   6.223395
    20  H    5.076599   5.202364   3.343592   6.922679   5.910278
    21  H    2.944480   3.508569   2.049331   4.607061   4.085071
    22  H    2.944189   3.508646   4.607046   2.049336   4.084847
    23  H    5.076260   5.202309   6.922663   3.343598   5.910064
    24  H    5.882029   5.886985   7.853353   3.848552   6.223271
    25  H    5.076284   5.201671   6.922471   3.343594   4.891031
    26  H    2.944232   3.507745   4.606773   2.049333   2.482350
                    6          7          8          9         10
     6  O    0.000000
     7  C    3.818425   0.000000
     8  C    4.971834   1.386218   0.000000
     9  C    5.177762   2.386800   1.386018   0.000000
    10  C    4.312593   2.713904   2.380929   1.386016   0.000000
    11  C    2.950047   2.286372   2.713910   2.386802   1.386219
    12  C    2.949767   5.835207   7.121577   7.515625   6.728698
    13  C    4.312318   7.121509   8.418586   8.849249   8.075070
    14  C    5.177562   7.515384   8.849035   9.459727   8.849226
    15  C    4.971717   6.728299   8.074661   8.849003   8.418547
    16  C    3.818366   5.368437   6.728283   7.515354   7.121493
    17  H    4.085315   1.085055   2.161682   3.384159   3.798010
    18  H    5.910470   2.141212   1.078844   2.151320   3.370943
    19  H    6.223456   3.374644   2.149481   1.079898   2.149483
    20  H    4.890949   3.791973   3.370942   2.151316   1.078844
    21  H    2.482020   3.246852   3.798015   3.384165   2.161690
    22  H    2.481660   5.753447   6.953982   7.155855   6.213509
    23  H    4.890619   7.941571   9.197682   9.509158   8.625617
    24  H    6.223246   8.572514   9.900726  10.516256   9.900929
    25  H    5.910391   7.298657   8.625055   9.508753   9.197510
    26  H    4.085356   4.871731   6.212869   7.155343   6.953677
                   11         12         13         14         15
    11  C    0.000000
    12  C    5.368825   0.000000
    13  C    6.728677   1.386220   0.000000
    14  C    7.515601   2.386802   1.386016   0.000000
    15  C    7.121557   2.713900   2.380924   1.386018   0.000000
    16  C    5.835214   2.286367   2.713904   2.386803   1.386214
    17  H    3.246856   5.753263   6.953697   7.155396   6.212915
    18  H    3.791978   7.941550   9.197564   9.508802   8.625063
    19  H    3.374648   8.572775   9.900962  10.516257   9.900686
    20  H    2.141213   7.299173   8.625616   9.509124   9.197632
    21  H    1.085055   4.872275   6.213453   7.155799   6.953948
    22  H    4.872292   1.085057   2.161685   3.384162   3.798008
    23  H    7.299139   2.141210   1.078844   2.151320   3.370940
    24  H    8.572740   3.374649   2.149484   1.079897   2.149484
    25  H    7.941526   3.791969   3.370938   2.151318   1.078844
    26  H    5.753284   3.246852   3.798010   3.384162   2.161681
                   16         17         18         19         20
    16  C    0.000000
    17  H    4.871741   0.000000
    18  H    7.298634   2.494728   0.000000
    19  H    8.572476   4.293893   2.495774   0.000000
    20  H    7.941556   4.875397   4.283767   2.495773   0.000000
    21  H    5.753459   4.095885   4.875401   4.293902   2.494740
    22  H    3.246853   5.867969   7.866408   8.188356   6.658674
    23  H    3.791971   7.866197  10.030040  10.542376   9.069563
    24  H    3.374646   8.187863  10.541980  11.567508  10.542324
    25  H    2.141207   6.657960   9.068831  10.541916  10.029969
    26  H    1.085056   4.201683   6.657895   8.187793   7.866179
                   21         22         23         24         25
    21  H    0.000000
    22  H    4.202373   0.000000
    23  H    6.658590   2.494725   0.000000
    24  H    8.188282   4.293900   2.495782   0.000000
    25  H    7.866374   4.875394   4.283767   2.495775   0.000000
    26  H    5.868013   4.095887   4.875396   4.293895   2.494723
                   26
    26  H    0.000000
 Stoichiometry    C10H10ClN2O2V
 Framework group  C1[X(C10H10ClN2O2V)]
 Deg. of freedom    72
 Full point group                 C1      NOp   1
 RotChk:  IX=2 Diff= 3.78D-15
 Largest Abelian subgroup         C1      NOp   1
 Largest concise Abelian subgroup C1      NOp   1
                         Standard orientation:                         
 ---------------------------------------------------------------------
 Center     Atomic      Atomic             Coordinates (Angstroms)
 Number     Number       Type             X           Y           Z
 ---------------------------------------------------------------------
      1         23           0        0.000114    0.000383    0.491164
      2         17           0        0.000068   -0.001018   -1.678713
      3          7           0       -2.025720    0.000164    0.249036
      4          7           0        2.025604    0.000098    0.249030
      5          8           0        0.000024   -1.284111    1.324916
      6          8           0        0.000056    1.286199    1.322880
      7          6           0       -2.684278   -1.143141    0.109199
      8          6           0       -4.037392   -1.190674   -0.188158
      9          6           0       -4.729914   -0.000339   -0.344878
     10          6           0       -4.037578    1.190255   -0.189325
     11          6           0       -2.684456    1.143230    0.108086
     12          6           0        2.684368    1.143183    0.108327
     13          6           0        4.037492    1.190257   -0.189073
     14          6           0        4.729813   -0.000312   -0.344883
     15          6           0        4.037268   -1.190668   -0.188415
     16          6           0        2.684159   -1.143183    0.108957
     17          1           0       -2.100906   -2.047789    0.245715
     18          1           0       -4.534484   -2.142185   -0.295074
     19          1           0       -5.783805   -0.000539   -0.580447
     20          1           0       -4.534821    2.141581   -0.297179
     21          1           0       -2.101221    2.048096    0.243727
     22          1           0        2.101152    2.048035    0.244158
     23          1           0        4.534742    2.141604   -0.296709
     24          1           0        5.783703   -0.000478   -0.580456
     25          1           0        4.534347   -2.142163   -0.295531
     26          1           0        2.100777   -2.047852    0.245285
 ---------------------------------------------------------------------
 Rotational constants (GHZ):      1.2826178      0.2380170      0.2331887
 Leave Link  202 at Mon Sep 15 19:06:22 2025, MaxMem=    33554432 cpu:         0.0
 (Enter /appl/g09.shchoi/G09Files/g09/l601.exe)
 Leave Link  601 at Mon Sep 15 19:06:22 2025, MaxMem=    33554432 cpu:         0.0
 (Enter /appl/g09.shchoi/G09Files/g09/l9999.exe)
 1\1\GINC-MASTER\FOpt\RExternal='/home/rxn_grp/programs/xtb-gaussian'\Z
 DO\C10H10Cl1N2O2V1\RXN_GRP\15-Sep-2025\0\\#p external='/home/rxn_grp/p
 rograms/xtb-gaussian' /sdd opt(nomicro)\\R\\0,1\V,-0.4769465265,-0.249
 4301193,0.022380149\Cl,1.6287728856,0.2514660693,-0.1306459364\N,-0.11
 05712798,-0.1284896294,2.0258210161\N,-0.3733996735,-0.2583856693,-2.0
 14881981\O,-1.5840011135,0.8079470718,0.0604685251\O,-0.986046355,-1.6
 914992727,0.1019329084\C,-0.1972266119,1.0368197187,2.6542661279\C,0.1
 681410598,1.1949122279,3.9820890776\C,0.6411800724,0.0954725119,4.6810
 250634\C,0.7213547362,-1.1205323246,4.0207643502\C,0.3340101899,-1.186
 6694825,2.691406221\C,-0.014522671,-1.3589042227,-2.6633243269\C,0.197
 2621299,-1.3796296772,-4.033113433\C,0.0275177981,-0.2080079883,-4.753
 8973456\C,-0.3554293346,0.9359406955,-4.0714166625\C,-0.5452642536,0.8
 647040725,-2.7001115511\H,-0.5773324453,1.8665485093,2.067397566\H,0.0
 835309278,2.1609219951,4.4549213116\H,0.938141132,0.183705433,5.715533
 9407\H,1.0788789411,-2.0050231462,4.5245081285\H,0.3743359053,-2.11668
 8299,2.133926872\H,0.1012858829,-2.2515345512,-2.057397248\H,0.4900642
 442,-2.2960925669,-4.5212394866\H,0.1877538494,-0.187422273,-5.8216419
 299\H,-0.5043363487,1.8700903652,-4.5901616035\H,-0.8495029447,1.73192
 5015,-2.1232988381\\Version=ES64L-G09RevD.01\HF=-47.0466625\RMSD=0.000
 e+00\RMSF=3.580e-06\Dipole=1.0450352,0.248966,-0.0764213\PG=C01 [X(C10
 H10Cl1N2O2V1)]\\@


 SUCCESS IS NEVER CERTAIN,
 FAILURE IS NEVER FINAL.
 Job cpu time:       0 days  0 hours  0 minutes  2.6 seconds.
 File lengths (MBytes):  RWF=      5 Int=      0 D2E=      0 Chk=      2 Scr=      1
 Normal termination of Gaussian 09 at Mon Sep 15 19:06:22 2025.
